# vtk DataFile Version 2.0
Really cool data
ASCII
DATASET POLYDATA
POINTS 1742 float
0.07500000000000001 0.14 0
0.09 0.14 0
0.105 0.12 0
0.09 0.1 0
0.07500000000000001 0.1 0
0.08 0.085 0
0.1 0.085 0
0.12 0.105 0
0.1849999999999999 0.10703125 0
0.28 0.11 0
0.295 0.095 0
0.315 0.095 0
0.33 0.11 0
0.33 0.13 0
0.315 0.145 0
0.295 0.145 0
0.28 0.13 0
0.1849999999999999 0.13296875 0
0.12 0.135 0
0.1 0.155 0
0.08 0.155 0
0.32 0.12 0
0.305 0.135 0
0.29 0.12 0
0.305 0.105 0
0.07875000000508221 0.14 0
0.08249999999796713 0.14 0
0.08624999994477348 0.14 0
0.09250000002338489 0.1366666666354868 0
0.09500000002871781 0.1333333332950429 0
0.0975000000446217 0.1299999999405044 0
0.1000000000410235 0.1266666666119687 0
0.102500000018899 0.1233333333081347 0
0.1024999999875588 0.1166666666500784 0
0.09999999995672679 0.1133333332756357 0
0.09749999993295566 0.1099999999106076 0
0.0949999999327388 0.1066666665769851 0
0.09249999994687409 0.1033333332624988 0
0.08624999997475842 0.1 0
0.08249999996713511 0.1 0
0.07874999994528169 0.1 0
0.07625000000843644 0.09624999997469066 0
0.07750000001273936 0.09249999996178188 0
0.07875000001609363 0.08874999995171914 0
0.08400000000596312 0.085 0
0.08799999995500563 0.085 0
0.09199999996395028 0.085 0
0.09599999992275061 0.085 0
0.1028571428503666 0.0878571428503666 0
0.1057142856933277 0.0907142856933277 0
0.1085714285545847 0.09357142855458472 0
0.1114285714042253 0.09642857140422527 0
0.1142857142114174 0.09928571421141742 0
0.1171428570758205 0.1021428570758205 0
0.1240624999989257 0.1051269531249664 0
0.1281250000108618 0.1052539062503394 0
0.1321874999670118 0.1053808593739691 0
0.1362499999441054 0.1055078124982533 0
0.1403124999576916 0.1056347656236779 0
0.144374999923171 0.1057617187475991 0
0.1484374999409883 0.1058886718731559 0
0.1524999999707582 0.1060156249990862 0
0.15656249997474 0.1061425781242106 0
0.1606249999551973 0.1062695312485999 0
0.1646874999071797 0.1063964843720994 0
0.1687499999007214 0.1065234374968976 0
0.1728124998824691 0.1066503906213272 0
0.1768749998938552 0.106777343746683 0
0.1809374999374818 0.1069042968730463 0
0.1891304347682509 0.1071603260865079 0
0.1932608695542663 0.1072894021735708 0
0.1973913043516907 0.1074184782609903 0
0.2015217391334448 0.1075475543479202 0
0.2056521739020605 0.1076766304344394 0
0.2097826086681942 0.1078057065208811 0
0.213913043447771 0.1079347826077429 0
0.2180434782403647 0.1080638586950114 0
0.2221739130419126 0.1081929347825598 0
0.2263043478224318 0.108322010869451 0
0.2304347826290946 0.1084510869571592 0
0.2345652174128625 0.108580163044152 0
0.2386956522045267 0.1087092391313915 0
0.2428260869786249 0.108838315218082 0
0.2469565217064497 0.1089673913033266 0
0.2510869564583179 0.1090964673893224 0
0.2552173912086243 0.1092255434752695 0
0.2593478259831423 0.1093546195619732 0
0.2634782607608773 0.1094836956487774 0
0.2676086955430016 0.1096127717357188 0
0.2717391303553551 0.1097418478236048 0
0.2758695651988822 0.1098709239124651 0
0.2824999999990965 0.1075000000009035 0
0.2849999999699022 0.1050000000300979 0
0.2874999999557849 0.1025000000442151 0
0.2899999998914104 0.1000000001085896 0
0.2924999999173861 0.09750000008261395 0
0.2989999999490425 0.095 0
0.3029999998369631 0.095 0
0.3069999997754347 0.09500000000000001 0
0.3109999998106712 0.09500000000000001 0
0.3174999999904143 0.0974999999904144 0
0.319999999932322 0.09999999993232205 0
0.322499999889081 0.102499999889081 0
0.3249999998645312 0.1049999998645312 0
0.327499999855595 0.107499999855595 0
0.33 0.1140000000157887 0
0.33 0.118000000013417 0
0.3300000000000001 0.1220000000099611 0
0.33 0.1259999999541247 0
0.3275000000124231 0.1324999999875769 0
0.3250000000276133 0.1349999999723867 0
0.3224999999832288 0.1375000000167713 0
0.3199999999956519 0.1400000000043481 0
0.3174999999914168 0.1425000000085833 0
0.3109999999821106 0.145 0
0.3069999998541748 0.145 0
0.3029999998025397 0.145 0
0.2989999998086384 0.145 0
0.2925000000026258 0.1425000000026258 0
0.2899999999597377 0.1399999999597377 0
0.2874999999280869 0.1374999999280869 0
0.2849999999173861 0.1349999999173861 0
0.2824999998824037 0.1324999998824036 0
0.2758695651827341 0.1301290760880396 0
0.2717391303765318 0.1302581521757334 0
0.2676086955683148 0.1303872282634902 0
0.263478260738841 0.1305163043519112 0
0.2593478259468048 0.1306453804391623 0
0.2552173911128917 0.1307744565277222 0
0.2510869562938488 0.1309035326158172 0
0.2469565215305712 0.1310326087021697 0
0.2428260867369406 0.1311616847894706 0
0.2386956519376654 0.131290760876948 0
0.2345652171380654 0.1314198369644354 0
0.230434782358882 0.131548913051285 0
0.2263043476009834 0.1316779891374693 0
0.2221739128400872 0.1318070652237473 0
0.2180434780690053 0.1319361413103436 0
0.2139130432664298 0.1320652173979241 0
0.2097826084880816 0.1321942934847474 0
0.2056521737213209 0.1323233695712087 0
0.2015217389818209 0.1324524456568181 0
0.1973913042334238 0.1325815217427055 0
0.1932608694811608 0.1327105978287137 0
0.1891304347276304 0.1328396739147615 0
0.1809374999819677 0.1330957031255635 0
0.1768749999865293 0.1332226562504209 0
0.1728124999704435 0.1333496093759236 0
0.1687499999306638 0.1334765625021667 0
0.1646874999507533 0.1336035156265389 0
0.1606249999697216 0.1337304687509462 0
0.1565624999275303 0.1338574218772647 0
0.1524999999086943 0.1339843750028533 0
0.148437499935088 0.1341113281270285 0
0.1443749999536966 0.134238281251447 0
0.1403124999208135 0.1343652343774746 0
0.1362499999171458 0.1344921875025892 0
0.1321874999521708 0.1346191406264947 0
0.128124999979305 0.1347460937506467 0
0.1240624999897477 0.1348730468753204 0
0.1171428571290868 0.1378571428709132 0
0.1142857142438951 0.140714285756105 0
0.1114285713965052 0.1435714286034948 0
0.1085714285352482 0.1464285714647519 0
0.1057142856792428 0.1492857143207573 0
0.1028571428452602 0.1521428571547398 0
0.09599999997086206 0.155 0
0.09199999996340819 0.155 0
0.08799999997472453 0.155 0
0.08399999995751281 0.155 0
0.0787499999903777 0.1512499999711331 0
0.07749999998627809 0.1474999999588342 0
0.07624999997448739 0.1437499999234621 0
0.3199951861294739 0.1203799907136155 0
0.3199807476075471 0.120759737532949 0
0.3199566937016074 0.121138996714788 0
0.3199230398507109 0.1215175248314592 0
0.3198798076555079 0.1218950789258199 0
0.3198270248647546 0.1222714166636595 0
0.3197647253565871 0.1226462964959647 0
0.3196929491183191 0.1230194778036086 0
0.3196117422188834 0.1233907210632695 0
0.3195211567817266 0.1237597879887722 0
0.3194212509488553 0.1241264416959581 0
0.3193120888435674 0.1244904468523558 0
0.3191937405326579 0.1248515698172431 0
0.3190662819785587 0.1252095788025207 0
0.31892979498931 0.1255642440237461 0
0.3187843671694491 0.1259153378380118 0
0.3186300918610945 0.1262626348973994 0
0.3184670680867635 0.1266059122872225 0
0.3182954004818457 0.1269449496778117 0
0.3181151992318693 0.1272795294565222 0
0.3179265799982134 0.1276094368746833 0
0.3177296638501286 0.1279344601746262 0
0.3175245771726789 0.1282543907495108 0
0.3173114516017562 0.1285690232499168 0
0.3170904239324845 0.1288781557281231 0
0.3168616360367832 0.1291815897605418 0
0.3166252347558307 0.1294791305968335 0
0.3163813718222957 0.1297705872619129 0
0.3161302037616157 0.1300557726816449 0
0.3158718917882556 0.1303345038073659 0
0.3156066016985039 0.1306066017370926 0
0.315334503768988 0.1308718918247365 0
0.3150557726428144 0.1311302037966978 0
0.3147705872287473 0.1313813718507674 0
0.314479130563267 0.1316252347832006 0
0.3141815897246442 0.13186163606457 0
0.3138781556865743 0.1320904239629944 0
0.31356902321243 0.1323114516278478 0
0.3132543907197214 0.1325245771923118 0
0.3129344601476612 0.132729663866936 0
0.3126094368442797 0.1329265800161109 0
0.3122795294250613 0.1331151992493315 0
0.3119449496507376 0.1332954004959881 0
0.3116059122615408 0.1334670680993609 0
0.3112626348590083 0.1336300918787341 0
0.3109153378001873 0.1337843671856809 0
0.3105642439878029 0.1339297950036675 0
0.3102095787742442 0.1340662819890313 0
0.3098515697897956 0.1341937405420398 0
0.309490446826674 0.1343120888516252 0
0.3091264416820811 0.134421250952826 0
0.3087597879747958 0.1345211567853454 0
0.3083907210438624 0.1346117422233869 0
0.3080194777896189 0.1346929491211941 0
0.3076462964815011 0.1347647253591794 0
0.307271416652284 0.1348270248664972 0
0.3068950789190473 0.1348798076563705 0
0.3065175248228456 0.1349230398515868 0
0.3061389967028894 0.1349566937025135 0
0.3057597375299025 0.1349807476077016 0
0.3053799907096217 0.1349951861295751 0
0.3046200092906239 0.1349951861295813 0
0.3042402624694918 0.1349807476076709 0
0.3038610032964121 0.1349566937024603 0
0.303482475176675 0.1349230398515381 0
0.303104921079642 0.1348798076562036 0
0.3027285833425963 0.1348270248657129 0
0.3023537035126829 0.134764725358137 0
0.3019805222000699 0.1346929491190751 0
0.3016092789451481 0.1346117422208368 0
0.3012402120130406 0.134521156782196 0
0.3008735583041778 0.1344212509488941 0
0.3005095531541231 0.1343120888456002 0
0.300148430182186 0.1341937405324628 0
0.2997904211972879 0.1340662819784879 0
0.2994357559827431 0.1339297949919021 0
0.2990846621695089 0.1337843671726765 0
0.2987373651071871 0.1336300918632019 0
0.2983940877049744 0.1334670680829359 0
0.2980550503159825 0.1332954004786041 0
0.2977204705401073 0.1331151992299985 0
0.2973905631195393 0.1329265799948124 0
0.2970655398154584 0.1327296638439483 0
0.2967456092429487 0.1325245771677093 0
0.2964309767499306 0.13231145160165 0
0.2961218442755553 0.1320904239351857 0
0.2958184102359738 0.1318616360340861 0
0.2955208693972441 0.1316252347510017 0
0.2952294127307884 0.13138137181603 0
0.2949442273175445 0.1311302037608834 0
0.2946654961900731 0.1308718917858212 0
0.2943933982595548 0.1306066016951512 0
0.2941281081716805 0.1303345037652187 0
0.2938697961998407 0.1300557726389831 0
0.2936186281410023 0.1297705872191601 0
0.293374765209175 0.1294791305539165 0
0.2931383639304908 0.1291815897182633 0
0.2929095760325162 0.1288781556804605 0
[...]
CELL_DATA 3067
SCALARS Von_Mises float 1
LOOKUP_TABLE default
94558.87473936965 10021.47285578644 59480.5096435905 74130.8564557802 46223696.790491864 46204348.03550659 31170.628836245127 43703.74439221834 90043.37772122512 67331.87568894874 9521519.385693137 516897.6981047409 76151269.69529575 79290.75101850976 26695509.00399904 6708337.945624719 67753.17275534484 33749317.74371944 90908318.3440901 44602926.50318464 8286426.122184585 8289043.457414052 2499619.1733210213 36469744.97993075 46843.23353647332 11750.499365709815 75886017.70576333 9366005.874831809 75229221.43913531 16474.85520160347 2769966.14480636 6687.094122588879 100351.63333833491 17412.20388024957 41014.80953201543 29168.855468720165 37133.55952411995 90627.26715794216 26986301.489269305 66899161.81694286 92448.17257203185 76326.62622007067 52688.76417625603 4441.229980499427 46248.53782765337 9758919.163354138 9759264.004137116 47480107.515592024 47439568.106305264 86612.77939810063 465527.6622156369 155618.26754580985 102713.78176805179 30855.77669096234 16445819.154448215 117250.91813715633 20056.43295854716 10961652.25865042 45678.44754547189 69238.23498074416 16938.569805005674 76361.7707982794 3656.65643152244 53159.96998022871 59671404.89389283 10315.785475492488 89414.59857930592 66631.57774558206 8186.989737438598 52897815.05841904 52073230.51708787 56437.54575244622 67208737.86340551 71368795.2039221 27511.252891276446 60568600.77372942 23180.249186612436 8041.904950587718 26174.218562657385 68911.90756683184 36599.57162902746 31680.198014436097 123237.91911970182 11389.325291532045 5058.31090142033 68596063.32954855 33154196.697707567 32366125.805758607 14191437.985032586 55326.89167417432 23081052.996180315 60231266.07270704 65848044.896156706 7406.990296462713 46082.81880165477 84791467.30215488 90288530.24904312 3897541.4975554263 118694.52178334373 53455.7773952957 74283918.93361944 61955836.11751086 68731355.33153158 113239.62500809955 61122.70345501503 107728.85143949327 4967.500804420157 66450289.98293146 62017732.96762328 52381036.20927369 52775997.15593262 44157.22774950737 11579.366262425992 52132640.37783174 54530096.45366549 28002.48261593013 31155.583344291856 70534.32767139809 13014.553272180583 8749.268972757676 45991414.38065266 45961638.290812954 5746.892868936922 43199453.291767195 65235612.76607021 27260936.834107067 110400.1244258982 19496.446262683072 26085.537526819582 26889.4340776368 9103798.044488894 43195096.06420765 85384.74079812033 123664.37609024768 119543.70497395792 174114.27457949935 37917.53303588893 43165832.42067309 61923694.98240641 43973.99499069163 4310832.206480768 5907.736689265925 109148.82632823601 56166157.13661874 56134735.622265756 44300.68747316446 61529.04525152425 84511.06595304245 43614644.09809914 120479.48117043193 129732.20506912144 10612.395786594974 53747.9109708201 98268975.9082067 98915833.16814639 53663.57752831521 56825.84257567454 102073262.57943322 11580.114885105357 49009.48804868352 12198.313485178925 42277.3655519415 15522.59526787099 30639.43621067121 32771.48589542874 96865.39401092028 34115.38495141265 22197882.535403896 22207735.18310853 54929630.599411815 56597107.90828492 102675131.39092448 110144327.0291173 12492.174669132484 97396236.15992424 97683068.60289454 106064552.71436629 106276910.84481774 16521470.267948573 16528008.272978652 24450.706786447576 33184.25471478586 96226671.92069383 96447661.72941859 14849.41923813995 74647857.40444061 42729.161714561276 63199283.77301106 63148830.85767775 41626448.19183524 77600.27656870196 4454.779069730329 62767.53742384533 107349.96151539893 31396.142684615712 62983112.51892982 10811.916707580313 66656.56908826329 7026120.437364356 9555.29622019822 7825.033405767362 49141.068263761765 45596.58996278641 108345.8166030819 2587136.8278566897 5528150.88109863 64391.68989659357 107009.95526849628 50390.47725390321 72033387.06124268 24470.669210378754 22001.105878943927 2275614.20517126 40647580.37962104 5635297.006356388 23174.956114182496 92441.74451615379 61738.735484642835 28305.562306884338 23660699.06039904 32673474.572588652 157789.70026841215 46964470.94348503 46914989.75318399 64350.02956362046 18312166.90031229 172602.51879581105 8238940.014355615 71491.63797121657 5627417.124312905 36485.81529926987 1390450.670129941 52702475.47825411 4525529.388330925 30347924.798181262 22153856.175513353 26484100.65832224 28439.867718781086 8824.112489907558 34738193.22797695 34708902.716637366 68137.19643652494 28493.398899800508 33886.633442925 43265464.858466625 43127642.78669286 11830.262275896317 4073580.353970984 147212.31896604583 67142.926069113 57726.12332799603 129427.9686060916 6621797.668388476 23560.817180259368 2874258.0578164654 47721306.49409925 51050.19646431166 83773666.66260499 8893168.196315529 45745589.55654291 2221447.5765321236 131819.6906571543 32081180.973013528 21484651.551432714 8806044.691569714 32579.484320722437 2054841.9247697385 43319.140985471924 10013.417348067152 75227728.81095347 74791319.8106035 236017.11318886458 38314529.825305596 91181.80189872076 94763.98631090966 115201.21277935094 41929.501407312026 47099.67167675729 86271035.5633186 168578.02489435326 961734.4974101271 4581281.35182073 90511798.4596625 88627951.46210828 41818.3561994072 52582983.580711305 89678691.63527776 10359.45052507712 76973.61773924483 106656.63150486254 61395728.67311189 55642845.93718763 16913.78732700518 116000.4813251328 22167.074039123898 84022.49494245442 7791811.831256457 6236.874772906559 4894512.823755423 111860.49492843675 36895.11019798136 113130.91758263817 106825441.6781322 105407872.04310706 72534.79183915249 32786.93914173747 19023374.371498935 85576.76461522291 89492.93779933783 35179.537200051374 7506.42521169075 104371908.98414433 104763305.17618936 90707.4475948932 68818.35963826563 44021311.36784671 44012452.530632354 157141.31718786492 66223.41886159044 26619773.07082011 24587411.035538528 70887.50325222516 106521.10859888558 17032.074267239095 26964.946872280838 36486094.055719934 36512333.22754303 53946393.849763766 19134408.480835594 18227061.570369076 12524.922298877149 12017.992205640105 103454.03700977484 28806.748758257938 1794050.7519155063 95587.62263466847 73763.73306382292 66772.36054981843 9518953.02303059 45153.66133327927 20913.3138897757 70113893.04462017 68410.33389420655 58715.99060179372 83888.51875241652 18440098.040720534 32803583.603595085 113006193.8706396 22746.180760805484 9025.087323530326 34913311.96367868 38167994.37821531 15800324.193240516 120889.35063394342 17718.300896728866 19956953.386144996 73616.92436642424 74416667.44890532 80498.88014284334 5151550.256623898 41408.862947393616 24459.97419109175 48859.625598534294 17728.63791012679 32088.12698773669 13823.428576061817 40721004.35910418 2205450.2909474224 129700.079296765 48266959.680009276 2176412.2021719315 15871.446240218094 104094284.48286547 104215445.2704512 46467.19596447559 37763776.68589263 16213422.184144104 62130349.25787919 60048485.23899655 5773927.245633485 105217793.79257533 105216699.51454999 1368969.7156474087 42132190.74998212 26584215.40799224 26181587.0710043 10565.567232230705 70171.84300897928 66144.37639948123 62080267.31495499 21842231.36071651 20202896.18943141 20177088.70889602 2202446.6233906294 15580.688592674147 22493.54950292597 16837.11006743544 27073.331556372523 65613.78791732248 21699.4334661652 15875.768818693245 26553.34944699186 20143.66423440019 24467.07094074927 26376966.63806393 39401137.16073873 38267256.237419546 5443219.315530759 2099162.5941558266 3697345.7515151366 35801469.10827625 35816792.53314978 14712.025320295152 26733405.311948653 79353.08263223275 32735604.954633065 42105395.068139754 14642433.177281056 14649775.593010467 87814.81344874178 109383038.26004885 27063741.62823441 54522.45018419117 55899.11303767363 118529003.17935741 118540456.03177497 24087.821681183057 59642.2962505563 12148.600524622 104857010.81480163 18090.179632212457 36536.60951398866 1698633.9968697946 143393.17957035685 29160748.1829957 29024440.15532328 14422.23145748777 7894.836898930543 52273484.45392857 52242000.89396167 44249141.79277699 29226415.735218387 98048.30791570454 13482.828467185136 1018530.8095936854 54063.204825478184 40991.132102418844 110250.92204750012 24828.20385317941 91503.81707580439 56746.95267099362 92733679.60097985 92781940.06563067 45648.786634142714 52405.69828799929 22457.307769440493 25612.482068492864 215444.98462910706 61280.70077450009 24811226.339447673 114264030.98332745 112575861.03840229 22259198.275575384 28576.90000903505 7349659.960516946 53542.24025702278 32345.36933950474 11766.040106935485 34847661.269847 47342.95406102348 60752522.1915501 60692714.096254945 83746280.4080788 36506.73537824403 43237.05755376321 29195.006815721263 117595411.14544098 117441490.45614281 65739.72411363505 33500.532290037154 432406.97323183133 65839364.555890806 13916.45686403712 103227.51867310474 17366690.363107283 21792.23048527784 25126.673403610494 101604.05165866771 50333.24366670458 51238659.92557365 51211669.84023181 1277753.9200585375 59667.2545093303 19487.426798922672 87177.1300862267 161207.67553258708 119710.09927333143 10237369.963602876 34748422.154232636 84680.31940574906 23170.320854458976 25927.086346797256 17393.804082735234 2388263.2106103776 17431.3788144796 24198.707917656375 8734439.34974274 23670.528958699437 23052390.801494062 24340136.690251507 71546409.08012691 20724.2863104919 37001.131333788726 74019413.4174631 10226.23362883416 65789.47493345001 24344.464008997336 101848.55117107376 11377707.099698022 12653197.296899345 15240.207538293433 9301.357610650222 32559.360219165283 35886.65470571596 16632.672212445417 134284.73485811023 22521.25122330099 40310648.915115766 40357241.864462055 38790.57995129032 108405.98782629345 9053060.37708882 9054123.999131078 537496.1206514746 26493.428476151414 2337245.963491697 59555.47246615042 51039.41424288711 35025.21826777312 46490772.81004063 46526595.90284618 32115.778595076623 55994.84937653915 47120.89527585254 76772.30715847824 74238674.34986052 72724990.69182989 31752.499944284278 15527.085923324908 24243.28955360545 750965.3116012497 62606.01069442739 104979.39090125132 30327.84704097192 23767.616715235796 18153527.671381697 22331.687949047457 22666.804141975434 29044353.468113836 75759139.58428676 52715498.59183184 74700045.79641145 310815.27347640117 23402.0436001656 51843.5864662012 157117.62819510003 5615.712837913918 8686.350616263899 42528178.401461795 16904426.848708842 68770.73347617539 23964.86459216085 15103.45270745388 73169.3146281774 55254.86261043813 223051.873278877 78202225.43286932 16390.720594210165 12698.761424976341 57344.36180301207 58154.71488214028 72744.6804058252 21749.227633723414 29055.880707525816 28106.906102982928 58417.664533594354 71339.72410917097 33475146.368033923 61719075.358975805 61656818.03166926 101094190.66857323 100718.07856184352 92572394.66714802 52538.346627211795 15984.98376266336 55566.05984692061 59929.25778428721 25171.10276735353 63808.01461728237 11079902.640369238 11082862.656704348 100116242.57897145 41799.753191980584 84446.07435293216 71411.75051406733 82772.44211355712 23834.82647686509 13581.978739263976 18623.857929154652 144835.55607984698 28853.63749539708 85033.50117825205 41924.603298246315 50555.57591040714 22244.213619628557 42491.151579866215 119758.28667251533 29138214.056982934 29150135.283463832 18547.334538668732 28665.291994473704 27446.782253585494 30998.476188657543 4222.148985669227 1483111.255446291 25106848.17483388 113535.82479040869 23209.86551230013 29853.72562013753 37057133.970679455 37015255.948683 2616975.4909052355 24128.84430644851 74345.29118276367 51845.611219611135 111584.2367882978 7778.9689125479335 24616008.558328833 65615949.52015395 95946.06713975611 24345509.97060891 16127683.288536388 23498203.7368262 17761428.753470954 49610.23230643784 47733.895028999184 8120269.27525365 8121617.560244613 66894.03151202714 109900.89850354225 18164869.125526667 32474353.45384321 32442898.913523056 131169.2932783946 40897.991929639145 34787032.41304463 11253156.20933031 10697665.028001677 52238781.71960879 20163329.013914905 20142170.113172505 88068.30273912173 1349889.4420291218 122584.82242111415 69909.82933887912 14740912.57549556 1901.002177773734 83974.51846861633 61179.71803052125 15098.936893183332 64172.71388632248 43282.55361340466 35981081.023698606 9341349.229056014 9347475.720964922 101546.17709518355 76536.82298846774 16469872.120420473 16478894.476604026 106299.06660127964 89006.84843945845 147659.56399194975 75616.02505787215 5551.609109351999 146104.97296200757 14047.804597343104 4558.814154966683 38411.45651396864 1278972.0454067325 37429.3219805635 85472.83811215321 73786.30821563734 8592771.286761332 70502289.25367008 17397.61650106191 76113.01201927505 71968190.19931865 15176.039394507447 32091.790896993054 74048.20178885314 26906.063524826284 22984394.593648255 25094533.929518998 25310.91810061308 95383.47093069839 78763331.97430758 77192439.57943621 23057.697506907236 50830.951677225654 101016.64268985741 9433175.384554211 9416503.326813893 42012.62301168773 21908330.164777156 87990.11319424593 98542.73545947712 40173.2597274233 87627.08445805858 91177.32179550234 21793.891934398343 24152.588738504546 73613.90424679495 1804617.4336560322 1797417.2288996992 15893550.958902763 15897714.91218157 541664.604074102 9986980.838867767 15830616.034148363 51289.2467294595 15493243.056728574 32671.244201946698 65479973.79647896 61904869.28914836 2943547.11074826 11141.539581881503 22257.107252576265 57407191.39270744 57380264.78196867 14233.611333908702 68600980.53807166 66882.19414064632 39969283.88062174 7458216.9994267635 25116793.355128758 7642.841608373856 14296128.929797858 26760.08768570555 18117.17159425806 90388.46142690345 11666.058215089713 42457.189371765795 47810.6835937712 59899.77638392558 37044.40582493067 106459.04325245439 23940994.812454302 24727431.122832295 43867.19658633341 51426.11088866449 85545.07183738655 49530.431369875514 60861.93451443752 2211718.9526987136 65397.39532499291 52888.0669469465 90671.10451038468 53196969.69813605 43221.38756170768 77136.04902467736 31054588.83105366 31081762.52593082 56519.51292557543 89475.1790721708 5602293.400265341 5606055.570677159 20493.60189563708 25253.782927059226 6233.7884567150295 39030.48398674375 13117.918747647136 21171871.46913695 32825.44203050598 4502579.151807696 216600.8031167337 21295.576456475523 145062.4031572997 76604.29745504605 21272.827147155043 24015.03898871043 18882.43919271493 46168121.64500797 47371502.8279321 22415687.786219116 18834.269906771802 143000.4174243768 50703.05679814352 27060.44764723428 207268.97358117942 91702.90715551692 40625.6916947566 123973.67867715459 32500.939785449875 77056.00876753265 41468.03811622798 191394.18473105424 22738.997373400376 41554.09820868451 42305.11295725796 23582.93744612579 50958.65846207954 11675919.86844857 44155.66639319804 65994.08392321276 87719.44214961141 30888.799425209458 22076430.5422368 22290159.138905752 19497.369787900072 23342453.637074523 13097488.427018762 22339387.903122805 11648792.265948879 60423.81573093563 21200.061742200898 79561.5606690196 11072003.644546106 11069575.938172689 65559.76946145478 35520.35247941326 44199.929860003285 61873.844794815064 48584331.5304157 48583738.10861991 1961241.8248440016 1907529.9035776164 37401905.78862749 36314732.15228113 54799.54975055659 13085093.605155395 16520088.114933718 16548701.52691067 29949.72047319507 149929.39205441246 16671.59393552813 49272.547759367684 7921609.60260159 13696.370262892506 74740139.7444 74310835.4004792 57497.210677572926 7704.093398035494 33908837.45746067 17160607.912409544 17154935.335100334 23831.937002642437 7812254.595433822 76230.91337767817 31358477.975569237 33073232.368548226 70103.72987636249 121056.05093143588 9313623.918961603 4509.686063042818 6289805.907652786 101879340.49669363 35459622.34087892 27754484.67830313 8241.594988128452 27453.58227286826 20161.700151670535 72721380.70822664 34656.13714917682 41711.74522966427 59225.91321597644 8620764.574422669 54786.1957342808 10475239.223433794 10663.38666746947 10901.736917786335 113122763.34869587 9124843.862329211 9120987.128792014 896630.1437113562 33750.75892613526 118074.21982441115 33647.80191906325 27802.547364388192 24982.256525381115 26656.881412339946 38325905.40533132 103395398.12583008 9988291.425657038 131802.1990871768 180991.7584938206 109040.13291362526 21795.191511103498 27339.19296726078 15764556.871561155 96567.09441702763 74251800.72573929 75043290.3661827 28188.273835650263 38355.376042176664 60456.80746330009 18282.24927919393 41634.34716684942 32844279.744969387 32804056.78970993 63022859.88165236 62518998.62214687 22816296.00929439 24063355.19966671 336159.62124786794 125199.24952456223 13870.828119805828 6127.069034272198 38039.62541435502 63903.24259863169 104553.11488783378 29179.4402970409 103465.5626328247 23590.210010533865 3103152.2543229023 14348495.84776726 56900.51101143855 119064.78600818063 31997.525186380208 9967.36689151312 29531.191239991567 11531.046815528312 22993.434876950527 24968.858181324067 124762.98615143089 1323568.4506054972 1515382.1870758748 86525287.61291142 116490.70965409595 64367.216662373954 119961.02072732271 64122.97663017021 31716.66713150588 31008.37171854013 129652.78431082152 146342.80723816986 4995.948224423177 53403.51144219957 5582475.514204218 45183814.38972458 100126.46922140918 9063.18623295948 8585403.019919759 16118315.857732521 22436.12352560999 19245.78587980958 1710438.1586583501 34402.01415590038 4213434.7819713345 18462727.30264585 18428507.15012481 92120.51579216431 55681.3773135169 9589695.153066868 49978.030135543864 110856.85010563157 59859.026467209194 25311.072990413628 1989636.5383211758 78643.5967852989 75191.05566728883 116046.00335097099 77056.81569968034 2774443.146968594 647738.6303339837 13137.103971342443 6889.672716503865 30164.076975766216 25459.563375340233 13141.574115997295 22222.9661556854 30035202.765005298 30345647.367347986 75023.77229579071 83856.97854167767 86760.3719074402 27124.70941999741 82653.23724598851 31339006.024807774 33051.376888916166 13418.560671330817 85969969.53338219 49024.20299115465 30804.945690860433 89471.00366877945 51370.52000358005 7793.163569925425 62426076.800186686 62315695.25864009 59466.27331335179 16031.586441388037 28521.74787121669 98338160.57666276 58003472.93005068 109298.33262660615 6965.388279556525 3108.5733271134445 516053.28774206864 47123.4626913704 47427.351308147 36117.43616793893 26402.83131270427 54820.63442357064 59801.52305727209 40975.41705785027 99575.4344736943 8935.32353242076 658250.7991324875 74727.49637915545 60294.438868250225 73376.84467174186 20490.707288021193 29315.8182667635 113013.4863575349 37541.428861819906 37073.7614447133 21181.233489294773 50533025.93601911 22396.387209182292 19416.296876165517 40872.736864206956 61363.23890200637 30418.66271135097 61125.51698215402 51545.50430537047 57630.44151161783 72548.29850810392 8806157.697868656 35061.38643607367 17098.80044470233 25876.892347157565 21160.033947307078 57653.69293893569 95449.5948624136 103547.16033299033 23058292.34611098 23062594.774223138 101627.38500922514 637803.5640527153 136577.5553061171 119617.19646713407 141490.78324084822 67735.4835839281 6734.212932367654 1621303.6229966406 20867.783347667748 69497003.03186853 20163789.359170612 18820508.43339879 11021.90007671992 29725.072014516765 99841.32542089433 81622.32833637971 78202.55824993204 85301.7753099416 54977.64890985152 14946089.981543109 15128635.292721357 37439.35263582157 116816.33698599308 32180.56301956407 4412.699632448055 104354.8006597235 268263.726809554 50646.16196819072 14372.937229278872 22044.2302175467 20768538.0731444 20762150.54097006 82932.07494044112 47398.045572916366 24701.29133818427 15511.576078962658 16851.594545624335 17950.093688664456 15552.00541786895 108359.21784153681 70467970.02705383 70540021.72934447 41990.994284