# vtk DataFile Version 2.0
Really cool data
ASCII
DATASET POLYDATA
POINTS 2109 float
10.0 25.0 0
10.5 2.5 0
14.5 2.5 0
15.0 12.5 0
20.0 12.5 0
20.5 2.5 0
24.5 2.5 0
25.0 20.0 0
13.21875 5.0 0
12.5 5.71875 0
11.78125 5.0 0
12.5 4.28125 0
23.21875 5.0 0
22.5 5.71875 0
21.78125 5.0 0
22.5 4.28125 0
13.21875 21.5 0
12.5 22.21875 0
11.78125 21.5 0
12.5 20.78125 0
23.21875 17.5 0
22.5 18.21875 0
21.78125 17.5 0
22.5 16.78125 0
12.5 15.5 0
20.0 15.5 0
20.0 14.5 0
12.5 14.5 0
10.00806451614194 24.63709677361278 0
10.01612903231258 24.27419354593386 0
10.0241935484938 23.91129031777878 0
10.03225806461129 23.54838709249173 0
10.04032258071191 23.18548386796397 0
10.04838709682194 22.82258064301263 0
10.05645161296179 22.45967741671925 0
10.06451612913326 22.09677418900329 0
10.07258064533511 21.73387095991988 0
10.08064516149915 21.37096773253857 0
10.08870967759623 21.0080645081696 0
10.09677419375892 20.64516128084849 0
10.10483870990822 20.28225805413003 0
10.11290322607429 19.91935482665694 0
10.12096774224832 19.55645159882557 0
10.12903225841202 19.193548371459 0
10.13709677455406 18.83064514506724 0
10.14516129073117 18.46774191709723 0
10.15322580686834 18.10483869092457 0
10.16129032303272 17.74193546352748 0
10.1693548391806 17.37903223687297 0
10.17741935534539 17.01612900945749 0
10.18548387146244 16.65322578418995 0
10.19354838763403 16.2903225564684 0
10.20161290381374 15.92741932838155 0
10.20967741997008 15.56451610134622 0
10.21774193613836 15.20161287377394 0
10.22580645230157 14.83870964642906 0
10.23387096844209 14.47580642010597 0
10.24193548458432 14.11290319370539 0
10.25000000073421 13.74999996696068 0
10.25806451684794 13.38709674184244 0
10.26612903295814 13.02419351688371 0
10.27419354902925 12.66129029368375 0
10.28225806511086 12.29838707001138 0
10.29032258120948 11.93548384557348 0
10.29838709730668 11.57258062119947 0
10.30645161342799 11.20967739574034 0
10.31451612954823 10.8467741703298 0
10.32258064562724 10.48387094677422 0
10.33064516174957 10.12096772126913 0
10.33870967784367 9.758064497034947 0
10.34677419397089 9.395161271309828 0
10.35483871007663 9.032258046551387 0
10.36290322617298 8.669354822215917 0
10.37096774228375 8.306451597231394 0
10.37903225839794 7.943548372092563 0
10.38709677451733 7.580645146720181 0
10.39516129059989 7.217741923004883 0
10.40322580666075 6.854838700266257 0
10.41129032276591 6.491935475534158 0
10.41935483889413 6.129032249764203 0
10.42741935499985 5.766129025006942 0
10.43548387108066 5.403225801370201 0
10.44354838716179 5.040322577719254 0
10.45161290326106 4.677419353252181 0
10.45967741938996 4.314516127451607 0
10.46774193552708 3.951612901281566 0
10.47580645160294 3.588709677867938 0
10.4838709677258 3.225806452339046 0
10.49193548385171 2.862903226672901 0
10.86363636397148 2.5 0
11.22727272776948 2.5 0
11.59090908917042 2.5 0
11.95454545068175 2.5 0
12.31818181403819 2.5 0
12.68181817915301 2.5 0
13.04545454194173 2.5 0
13.4090908986116 2.5 0
13.77272726213363 2.499999999999999 0
14.13636363138024 2.5 0
14.51785714288412 2.857142857682448 0
14.53571428574426 3.214285714885328 0
14.55357142862196 3.571428572439232 0
14.57142857151165 3.928571430232919 0
14.58928571437537 4.285714287507488 0
14.60714285724751 4.642857144950152 0
14.62500000009455 5.000000001891001 0
14.642857143032 5.357142860640115 0
14.66071428594258 5.714285718851571 0
14.67857142887942 6.071428577588326 0
14.69642857180077 6.428571436015462 0
14.71428571474886 6.785714294977167 0
14.73214285764917 7.142857152983446 0
14.7500000004943 7.500000009885979 0
14.76785714328319 7.857142865663754 0
14.78571428612831 8.214285722566284 0
14.80357142896074 8.571428579214821 0
14.82142857173971 8.928571434794218 0
14.83928571444931 9.285714288986206 0
14.8571428572153 9.642857144306044 0
14.87500000002409 10.00000000048181 0
14.89285714286733 10.35714285734665 0
14.91071428569972 10.71428571399456 0
14.9285714285493 11.07142857098609 0
14.94642857139116 11.42857142782311 0
14.96428571424643 11.78571428492866 0
14.98214285713977 12.14285714279527 0
15.3571428591223 12.5 0
15.71428571719138 12.5 0
16.07142857423201 12.5 0
16.42857142974857 12.5 0
16.7857142846084 12.5 0
17.14285714112862 12.5 0
17.49999999772317 12.5 0
17.85714285297952 12.5 0
18.21428571083795 12.5 0
18.57142855939082 12.5 0
18.92857141386655 12.5 0
19.28571427430228 12.5 0
19.64285713574168 12.5 0
20.01785714292029 12.14285714159426 0
20.03571428577939 11.78571428441216 0
20.05357142862984 11.4285714274031 0
20.07142857152504 11.07142856949918 0
20.08928571434997 10.71428571300059 0
20.10714285726139 10.35714285477221 0
20.12500000019564 9.999999996087139 0
20.14285714320795 9.642857135840998 0
20.16071428614276 9.285714277144802 0
20.17857142904537 8.928571419092558 0
20.19642857186783 8.571428562643403 0
20.21428571479022 8.214285704195643 0
20.2321428577479 7.857142845042126 0
20.25000000069735 7.499999986052996 0
20.26785714347055 7.142857130588933 0
20.28571428619271 6.785714276145805 0
20.30357142900126 6.428571419974752 0
20.32142857178615 6.071428564277086 0
20.33928571464426 5.71428570711476 0
20.35714285745924 5.357142850815163 0
20.37500000029276 4.999999994144766 0
20.39285714311046 4.642857137790787 0
20.410714285854 4.285714282920003 0
20.428571428706 3.928571425880045 0
20.44642857148773 3.571428570245412 0
20.46428571431238 3.214285713752382 0
20.48214285711565 2.857142857687005 0
20.86363636516213 2.5 0
21.22727272581398 2.5 0
21.59090909243092 2.5 0
21.95454545450997 2.5 0
22.31818181891514 2.5 0
22.68181818017414 2.5 0
23.04545453949341 2.5 0
23.40909089990082 2.5 0
23.77272726283935 2.5 0
24.13636362860863 2.5 0
24.51041666667252 2.864583333538364 0
24.52083333335455 3.229166667409358 0
24.53125000003504 3.593750001226702 0
24.54166666672229 3.958333335280106 0
24.55208333340738 4.3229166692584 0
24.56250000009479 4.687500003317582 0
24.57291666676292 5.052083336702424 0
24.58333333342993 5.416666670047649 0
24.59375000011929 5.781250004175338 0
24.60416666678541 6.145833337489197 0
24.6145833334717 6.510416671509586 0
24.62500000015173 6.875000005310423 0
24.63541666684382 7.239583339533857 0
24.64583333354729 7.604166674155124 0
24.65625000022954 7.968750008033958 0
24.66666666691629 8.33333334207003 0
24.67708333359532 8.697916675836199 0
24.68750000028001 9.062500009800464 0
24.697916666944 9.427083343040039 0
24.70833333365369 9.79166667787921 0
24.71875000035885 10.1562500125599 0
24.72916666707987 10.52083334779526 0
24.73958333375135 10.88541668129731 0
24.75000000042991 11.25000001504697 0
24.7604166670681 11.61458334738357 0
24.77083333369809 11.97916667943294 0
24.78125000036938 12.34375001292839 0
24.79166666700398 12.70833334513953 0
24.80208333364604 13.0729166776115 0
24.81250000030942 13.43750001082962 0
24.822916666971 13.802083343985 0
24.83333333355412 14.16666667439433 0
24.84375000015083 14.53125000527908 0
24.85416666675838 14.8958333365431 0
24.86458333330886 15.2604166658101 0
24.87499999988007 15.62499999580261 0
24.88541666655004 15.98958332925141 0
24.89583333319863 16.35416666195201 0
24.90624999980522 16.7187499931826 0
24.91666666644808 17.08333332568263 0
24.92708333312806 17.44791665948182 0
24.93749999980001 17.81249999300037 0
24.94791666645933 18.17708332607652 0
24.95833333311969 18.54166665918899 0
24.96874999985664 18.9062499949823 0
24.97916666655788 19.27083332952599 0
24.98958333330658 19.63541666573034 0
24.65909090697006 20.11363636434331 0
24.31818181387862 20.22727272870713 0
23.97727272112545 20.34090909295818 0
23.63636362933978 20.45454545688674 0
23.29545454074166 20.56818181975278 0
22.95454545175678 20.68181818274774 0
22.61363635870555 20.79545454709815 0
22.27272726938004 20.90909091020665 0
21.93181817642107 21.02272727452631 0
21.59090908415283 21.13636363861572 0
21.24999999070893 21.25000000309703 0
20.909090898365 21.36363636721167 0
20.5681818062032 21.4772727312656 0
20.22727271532826 21.59090909489058 0
19.88636362288735 21.70454545903755 0
19.54545453222531 21.81818182259157 0
19.20454544067146 21.93181818644285 0
18.86363634917439 22.0454545502752 0
18.52272726008306 22.15909091330565 0
18.18181816691119 22.27272727769627 0
17.84090907624678 22.38636364125107 0
17.49999998161302 22.500000006129 0
17.15909089129634 22.61363636956789 0
16.81818180107666 22.72727273297446 0
16.47727271035784 22.84090909654739 0
16.13636362113641 22.9545454596212 0
15.79545453028867 23.06818182323711 0
15.4545454400335 23.18181818665549 0
15.11363634812483 23.29545455062506 0
14.77272725866684 23.40909091377772 0
14.43181816866006 23.52272727711332 0
14.09090907805834 23.63636364064723 0
13.74999998745307 23.75000000418231 0
13.40909089754563 23.86363636748479 0
13.06818180839043 23.97727273053652 0
12.72727271853859 24.09090909382047 0
12.38636362812021 24.20454545729326 0
12.04545453791708 24.31818182069431 0
11.70454544876188 24.43181818374604 0
11.36363635991656 24.54545454669448 0
11.02272727049761 24.65909090983413 0
10.68181818161208 24.77272727279597 0
10.34090909059876 24.88636363646708 0
13.12245575810983 5.359375001489979 0
12.85937500007252 5.622455758928196 0
12.14062499745613 5.622455757501361 0
11.87754424071326 5.359374999451498 0
11.87754424189017 4.640624998510021 0
12.14062499992748 4.377544241071804 0
12.85937500254387 4.377544242498639 0
13.12245575928674 4.640625000548502 0
23.12245575866386 5.359375000530365 0
22.85937499942928 5.622455759299569 0
22.14062499843458 5.622455758066268 0
21.87754423944776 5.35937499725959 0
21.87754424133614 4.640624999469635 0
22.14062500057072 4.377544240700431 0
22.85937500156542 4.377544241933732 0
23.12245576055224 4.64062500274041 0
13.12245575835722 21.85937500106149 0
12.8593749974183 22.12245576046061 0
12.14062499962912 22.12245575875594 0
11.87754424065191 21.85937499934525 0
11.87754424164278 21.14062499893851 0
12.1406250025817 20.87754423953939 0
12.85937500037088 20.87754424124406 0
13.12245575934809 21.14062500065475 0
23.1224557587305 17.85937500041494 0
[...]
CELL_DATA 3900
SCALARS Von_Mises float 1
LOOKUP_TABLE default
57176596.43845034 21610153.328072812 55023170.21051847 93708829.71515456 54956880.02148284 34876883.06049805 50549324.25057424 56793657.20392784 63060184.977125555 59170161.811075196 14725441.536951771 57639357.87164768 54991211.43929372 49399183.34309502 51080600.14344745 34727087.86371942 54721442.17000159 27205230.738855675 50795587.26048894 41532888.597799845 1227645.1833737295 35241418.11836216 3876532.211046462 56845944.697324425 15993732.774562357 57463282.58259946 49513590.89135155 56073901.925104484 1863927.1282225624 17505355.64023446 4320813.410483415 64323939.76514991 61399018.394297786 56768532.43921871 52669328.59654985 18020306.725790437 16397234.949220661 56143458.465034276 37479244.32622866 9272686.687983412 49822337.117987454 9070525.391961312 59970439.47271086 56766295.94154124 50876903.97802406 56035608.131457955 17696472.711424377 49094185.30765344 34551976.47400902 54254874.90818099 44850224.41010861 62332163.30709342 15882504.967108587 14377047.02455373 39495706.10811854 9434191.02452721 51297780.26046847 4333212.406286329 53704707.6271351 50711405.59352954 45690319.804264165 52844665.0343032 58444451.54340779 24951035.530022517 51040649.72674137 49639202.376830705 40087459.98637996 47587292.62724711 30181144.218558013 9348792.12150815 71191364.2353914 11267698.497522622 58805396.25433354 38845151.997925706 34462084.02045337 16161392.823463319 55352807.64498395 64745818.86321665 34230484.39481866 43518398.44045337 35651398.09869359 50062934.429521255 11215467.492181482 57621669.79548924 79558163.10254236 19964930.231855232 8904144.843934387 8839431.457045991 37393583.169831656 48929345.48643986 58401833.75573516 47612513.36675746 57467983.440844096 36161750.906043105 53050075.74049442 66653877.597609125 64030286.00066803 10923504.106902588 27914334.205598973 48944190.49013042 9589260.579760393 50100784.71081598 47917662.998491414 56578361.09380936 56714195.13266421 41655858.61851057 14069555.939164998 4658970.6813146295 31726469.36125675 68738351.87375987 55347633.355056286 13013705.686732654 39307745.81349482 37253332.978425145 49968551.61460038 72651472.79613733 52122449.156666264 57178688.75981233 28560661.530507527 17706199.240946196 58009411.04349181 43507628.8217431 30483291.18686979 50713044.023728795 31136289.897848874 5445988.001681918 50308696.891538896 24318186.83290894 10143535.580428135 9771509.410179742 57504405.119401306 9266054.193893753 36187983.64566558 23576574.05322887 53220436.02462001 30401521.748516105 52069700.017608486 38689138.09875598 55062526.5884737 32052920.598424606 32230488.197531894 35965500.936842695 55751977.7425649 53191752.38719646 95922626.62097886 50136283.157854214 5855244.179042174 34872083.76452951 35670956.76706974 45045271.01453738 28098314.403195288 3718795.720778842 21410895.980748203 15960440.423710106 40900750.673731044 44058700.647896804 8694076.607743787 36475179.52869385 36493309.25646281 56783123.71139401 21899360.80700824 58375156.43295759 41998594.87548091 56476016.65818143 6365417.603440281 15006321.295165777 20245685.501741864 40444752.990050904 51163358.01747864 29215445.23952594 49346822.77692928 36787502.41518009 53544993.43122728 36561309.36831524 6385163.630499703 77588330.77916515 50778663.48919833 10112887.469767723 9696400.892130684 54104371.73421358 40939253.55519681 8579438.755573127 56087186.25143929 55268291.21008286 59180977.75455042 47557583.48846485 47790239.1077599 31441817.666763656 32945247.883863974 22673605.353725456 56426371.45498948 55394013.912956245 51997938.09653413 41101229.06936768 50127319.51174436 33547461.06555997 57083555.080553934 29260145.054866128 51904006.24701727 50690075.2099887 12169549.883696487 61616758.623252496 56442950.8245595 39681300.07369535 3817917.6827236945 37924181.07514609 57178114.35482053 54346702.73866297 26559606.155857615 42741521.51010161 30937027.92565818 52020782.266636305 50500438.31455167 49578382.68515373 69883720.95229475 64464198.882614404 50491718.18801269 36890026.27260188 52027678.547685094 63943911.46337161 37433838.7604733 50217260.39565596 65682960.40136295 67018785.64273789 35681303.67209079 38341202.22789728 39399386.56068704 68671654.84088868 21720201.87509874 33552416.2031193 42378797.56983237 57268116.41147768 44432896.31593721 44603122.384018555 1066023.376393163 29037331.81783437 47429089.50100673 15895830.6453182 53611906.08637336 25982172.919219404 27884943.157707177 66975125.76630362 33458293.68211949 38831290.185425475 53048079.16921605 49039079.25705464 51605071.21625444 46137101.48798491 50150854.20207702 29232186.6865207 17928411.864291213 38323827.80924377 56977662.29045072 49080110.855955265 56644457.7220321 58921380.56475504 36926720.684126936 47256289.17351066 40005531.14065005 47880224.51879755 57407560.34977044 62594182.2752362 49434010.67282836 4047548.952439778 51668931.99332982 31398749.626460645 25590614.10635845 31696117.78719392 7280047.21575545 46340951.044186175 41654727.91562814 46918118.75133825 77529833.98061188 50905149.93138878 56791579.70473554 48365542.74940255 49007968.62766335 1827007.0079331934 54715276.75180583 27762350.834389165 46873015.515938446 47488145.503162175 22317210.285276458 51682693.68211019 57593023.9834126 54202701.816204764 47849344.2818739 34410946.57467122 61272453.888253585 2764663.1411853647 49339409.269271225 27762467.56577607 25228110.946876243 55468698.551274695 13503455.16316116 15932138.707881605 44218712.39078174 66855469.36247508 6832552.6720174635 35976080.09943971 36218548.14397899 40149700.59422824 30463115.305247407 28193055.2568668 692496.1892476965 3218574.344705038 853649.9076998665 7532582.548689175 33536975.16453338 6438408.993914129 50328269.43843259 55889323.95813373 4063421.774689598 45424472.58726937 56283312.73448779 48049017.31833515 49173009.08738712 51087738.75782775 32317960.004430417 23597857.169086415 50315251.63650247 22855672.550056763 6357698.902937126 14258552.283364512 53168955.832640946 49826718.80021568 56242142.88897057 5274579.8397574 63228444.52750891 37376071.455659 73636899.62191242 44500047.627144985 53118588.964179054 23200387.086093463 36997291.44741385 98709356.11284643 70658905.78035119 8797359.179600134 57524969.65159368 47235332.98176181 27791865.37551273 10254258.245523702 57352665.527628094 3491472.941002943 55444650.991681054 60858163.659476236 31084680.466312874 69080624.00152682 65564428.74189425 51653274.38940401 57849185.09811586 5244328.667816134 60681821.03358423 4201415.892357764 51177772.15261354 58345296.784096465 4254292.6266988125 4271657.519825784 30633739.660320356 58866733.06000836 51338066.76575586 53891563.3323249 10012799.269643215 32351235.55412596 51057546.03546179 33719245.39238918 43325453.87510128 23929124.74034616 13393533.812737335 13257307.321308497 51417879.56822691 882322.4163218775 11396847.35620593 46477032.63627022 13235337.682210505 765207.550588644 771212.4364149821 54230289.374572925 23868263.574156586 26280940.94344158 54703030.39957944 50076740.51901439 12068433.767411973 709460.4581303309 42873388.20082011 36372475.80301339 52238071.07639111 62634613.33995709 42286792.53631734 54307180.25943012 58522120.70957353 50634668.22399446 59605402.744822554 29577520.429061145 50855800.39765831 53427546.562073454 26566277.34824911 62358333.691469334 54878340.72359382 49810878.189238735 52509111.46620489 26323923.935667913 61130810.19873402 47066893.75608523 58592116.32437756 53334576.57633868 26080118.57213365 10182634.704932906 61844365.396777414 4884372.038308738 55626376.954244874 11477761.887595294 54531766.355842486 9971123.7231267 5322654.95897793 16871250.26907428 26070798.868189692 76161469.16293944 959897.5196869434 971978.8890873796 48986498.235988885 52702041.20546016 61116428.6509556 74302673.76461536 49282963.20637618 53957567.30247232 34856264.622182764 16341738.512712216 52383717.15779665 31783752.095817197 27605460.817452442 41050931.20663093 4545152.748969861 58621068.09994692 45696201.883637555 63062526.80578128 33332618.075822607 47579053.413159296 56170122.52700964 58436978.07651865 19986096.3660383 43204031.774105005 35815268.47705362 35872982.57899362 10607680.329744471 58059836.93727359 63798403.56467122 56297888.70272826 46425565.48096405 10947739.004661039 61151925.41033729 7471677.217035413 54568365.09011503 50839124.00952009 57601934.0604664 69177324.88239385 33232163.53184874 46463593.32797037 47689550.83420189 60471601.84730121 138643713.68206137 34757739.11095017 68857018.73952344 8224530.142701573 37671184.60978195 52196488.66311699 27201550.45289144 59035502.038483985 52546704.49627095 54274174.62187812 24077666.75641449 35713820.81551347 32844723.76494635 5908110.034456431 57231719.74927767 59768289.89521089 48780086.776511624 26818437.536609992 57904007.64707474 45789934.929268986 40499787.68572945 60251927.86414866 8226595.750801768 45912953.13246646 59503236.9623337 57655868.25603918 52341127.98180495 24331344.56524435 39193468.551896065 46977326.812719956 20305777.587099466 58982956.5273656 33689369.2850592 60814745.43794273 12844416.280405898 47147468.6830255 92307872.15666208 53426865.851142436 58482388.723115854 55698081.40739538 58259417.475514285 62198456.00319859 36066259.056006946 60635502.121070236 58304084.08538235 16380264.288227968 16380264.288227968 50668678.75968582 10941036.102569612 60499724.31290178 29483734.117076702 5684139.101488473 5755426.611873002 55281269.40999532 37283768.4473533 46186782.60045895 35710593.190572634 1455521.6496601684 6279163.01535018 42072553.91648518 23022808.688993137 16487071.03290112 41879144.75886622 52005609.38348955 59994879.219943196 50519122.83089099 37816382.9129146 16567334.206882386 55812214.32892191 40992784.65035117 48777325.22124437 57364067.97398117 55178114.757861614 59289687.84570632 145301775.76147518 11004579.936468344 41346585.294763796 62353943.023306996 15973618.182237001 46800751.84234053 41896503.72736488 40935506.8981494 66485202.53034361 59190834.116693564 47925219.77944815 12782584.351643251 36172251.46862473 58802446.54112542 52841675.68997082 69235896.49427545 33856749.64627816 52764783.00115757 54939197.70956983 58588899.48814012 56867169.810238674 11189638.992882729 51577127.14154693 25501132.2272284 30396881.524406407 59331390.30005275 50741801.089224346 49599004.72155478 49956161.64629332 59889245.06257734 48094991.011637114 55933364.24519314 81314582.78514941 66900750.85709769 22139315.531081896 14930783.568408994 58611125.86039318 57688347.04151448 57474321.9279738 10917411.048405841 20847594.90246467 16588417.784770792 54094820.19749647 51096406.268323556 4263622.696573127 51767147.528090894 60975456.672918074 35268009.44001098 43277738.05009987 46561679.39467026 51253278.37837978 16318284.91324092 61509440.80927113 22106340.380851056 50877774.51207861 58307201.30305979 13380311.361158848 56078550.803550094 72496064.09389098 35146508.17031014 26787068.492512815 43470616.04413337 54782018.12296602 48031817.116849154 35769751.5544926 31771058.64794443 42440944.57101815 48500006.46888037 67679463.50166544 99755441.11166984 20301865.317761082 29703551.51821251 50618289.65752871 44760934.309888996 25215346.082851075 32297354.10791073 38095135.25179655 56293536.056456946 44955060.75012175 28950116.010081723 54141526.31872184 26589460.432495628 28576471.819730304 27135886.349991135 37485538.69279252 48919279.31781886 26481654.402493425 51761304.6515688 26862592.327567533 25052665.976743706 32429534.95727087 56624713.88147787 4741578.713851175 77245215.58815421 83373691.58443876 25500516.09979762 52421396.05810016 28489056.954074774 61498841.641364485 58977690.767113425 54471197.798679784 49919192.886618786 17347288.14000152 29724413.7663681 63632429.90676908 18977424.541899946 31405923.975754183 55650284.4139257 57631315.720856644 58142459.07076583 2343450.8210762837 53263208.68360445 22036080.10204745 54633911.7751429 21901402.875498157 56180255.6749267 42103318.13828569 8392399.27710396 49076637.484529644 51793858.228763975 48808483.113316335 2188359.5905781565 36389528.95187859 24597218.92076839 52668861.4419095 65246073.26460923 46487821.3290524 23395332.04937909 57359029.98932337 111422030.49524234 47740758.020874165 55579576.71935382 58274373.41577077 33765109.30822579 63050507.31782997 55829955.16179885 64136452.40146096 30608049.81698806 57847934.03749338 29942170.225834288 48249553.43071666 24808806.48302711 32703847.67573413 1663729.05269311 20247148.361583292 15950986.895430194 46694772.971053384 37351850.563027084 25098476.905814197 60212217.18378672 56021117.96573202 49950797.44992845 55745205.189865716 57114254.09530073 64291817.39500076 88910057.06129473 57070858.90917483 60632613.14486437 18451354.597263113 22048395.511155065 40817366.3992927 50460983.530692935 62688410.75769543 55696658.35557407 18007787.38365913 61355611.44927481 33808036.863095805 39658434.70265815 48259106.02840864 55759233.72202576 39162188.42804357 37725059.388238855 75511104.43279076 5874484.036921527 63440164.07160287 56306509.694872335 73486795.11450271 58274253.8876874 63070452.270077385 56397761.78172632 17800503.56456656 58188437.3670037 46596753.404300295 32606340.65061672 53304682.177346975 55378898.47262643 23154773.53181589 4489272.978904252 8946547.057038674 103070346.42462443 51887119.111553766 59399943.39402438 50269097.827507645 26104705.729119543 48340143.78114603 12663061.296489712 26976076.204910662 11907421.99364349 54794976.26643163 63357717.572874986 61895098.57658213 51236079.19633874 88175630.22672427 23596331.610502467 31737127.805636335 57196279.430883884 785013.1803555208 14498511.935366748 56066332.005831346 46418171.111329325 13534059.931635207 23638936.08643052 63568001.21977784 51060215.23028067 8909698.487601459 63435896.86212178 17852445.842968795 17736665.951475345 30934470.85439664 77049660.4909533 57204118.375711866 39606212.575340495 23257293.420666974 57786172.68663242 53373105.21124224 21250347.69810808 21388184.492486883 44491722.638647154 34792000.97409545 41676442.831458986 52400547.35303006 57590930.635797806 31779000.18698828 64271693.44343676 120724212.78240767 10830835.885389298 66283784.03776654 46295516.828742705 55756692.56323751 23620058.73124467 23694110.96634265 35161085.20952077 56986405.73206285 14458514.044708619 59233350.298852295 37825187.114772536 46591946.71756123 28573638.974687956 53931693.54872916 31493547.19836809 3290488.4383947407 50091154.46512456 87803434.01742642 28637270.229741983 57109477.58109822 17524011.75028122 16968624.973094538 37072089.669733524 54328245.85695581 61207602.716966316 7050508.625942431 22155985.16624624 31208538.32928032 36527288.99097364 82071387.1909535 52944538.9854309 18395938.044674605 16598392.347280035 62021060.60877464 6272085.568316011 38072426.67126477 17616083.288927834 39655653.90012212 95725879.88303699 36725329.01538232 97570691.73417036 28585886.5335212 23604792.19192191 37086373.78502907 17606770.004546214 51725981.66898594 49766312.72484772 30297930.81997749 67362496.9514485 50547866.410350576 63061930.95900621 15594514.880034821 11786990.708411042 39292987.14787593 50011105.19690079 55216821.270946346 41399592.50123057 88148671.71775551 23549633.793570697 8770876.565537237 9467792.892574605 42489940.92601391 1333423.1561939376 36813822.20876631 46382055.50386186 37291552.53647159 25609254.62448042 71999548.4745162 67546642.78752545 85455483.9198713 59326022.91131171 32518448.725654405 40039166.9525524 52822558.25966085 60440540.500388145 81732034.18723439 46087207.20839159 70496332.13152207 15326132.547133291 44869636.7536484 60287646.142751634 31853641.055212315 49070213.45698062 52839368.95127222 56266352.38927164 59357547.065817416 3229943.463771789 55712971.48704673 28385215.87937779 56807910.64413126 34700474.01801465 32231293.754018225 51083973.14432166 48938688.10733574 54644095.89756913 34398041.686064154 57276454.77789188 36904339.50510081 59694243.069314644 56476564.146442 88625278.4193069 55695945.672228426 50248075.392260216 42690160.80067271 40790940.17247509 32295735.326150797 12765374.409822877 33536338.91029282 38822009.71434606 50469478.07636838 113361094.49660167 26377153.8974881 33665005.12281132 51687520.79539708 51801573.33975589 30273466.67260386 8387097.162334863 59503856.192320555 6705530.441348652 49162781.88550711 24136377.05621078 63862952.31827949 46634479.748715766 9428254.771889305 26314714.938979663 39523842.38894512 22057275.517179668 50943405.05517565 52988278.86083488 51188380.88695228 53919560.87906822 44292915.733878225 8016755.029864354 47957935.76182132 55901059.366013184 58573886.59235309 56761076.92984603 51224890.09891233 54558443.73145027 50708233.56386111 61551736.72096609 50857704.73362258 47857225.255774684 17050353.388166968 56440290.872915715 32661926.579709362 61150556.4409546 38535806.45510483 92589145.05540532 55164426.16411697 12165446.234731674 12063561.13015969 42154405.69457932 43174509.348213956 31581352.851765662 65481211.88691741 88282364.81466678 39244471.50703164 25037569.37772545 48379334.07723492 38122915.35665121 6393684.306890296 41207619.78619878 6660341.453760065 18163388.17506527 26968840.72458088 23527357.146178834 49735252.27535317 53626523.093056604 47994336.40644651 12539206.884656223 12414929.18702993 25889007.791793216 35413647.15875049 30655792.56720853 47282570.32161875 16109012.921416407 9277574.196971659 4709795.01007794 16758892.018979847 26136590.763366878 50916419.286145955 58286354.84543055 67776787.59161633 34633740.55533535 6418056.548171043 54264184.50296965 9327078.90414234 11729787.8728656 48397947.03238125 61955374.9537676 19468756.798777707 14006375.515808998 23091929.099991113 49754085.803832255 48401583.06113696 44558580.42154921 20825283.588710748 36961147.165003315 61491168.47659956 62554693.65156178 199879801.71315894 22401692.047097288 46976417.75628131 17299971.26791235 56059379.82515686 58976717.612077236 52677087.859092295 56895543.17933237 37736751.527056746 59035472.942027226 36403374.21873731 4792262.009596354 8405014.354172032 42699843.21878496 84559934.01754764 41684583.96995297 11956474.017551325 52783105.74159558 33481654.284636755 18270110.60088931 12855514.130428568 42720514.19000912 42783592.44716991 3460667.6433135457 57985230.231608 62908049.409300976 39356250.41070295 55184927.91078455 52776051.89800799 62093531.07252958 11982823.224322101 55356593.89423695 50560070.3399909 58828989.207106344 14686129.026972653 38662521.59668352 43174777.52707879 46781655.48413958 52918735.23702723 57800521.054505125 32531679.921600256 63240280.353802845 35050818.65257858 22647276.421942666 22736138.33082577 12639483.041803569 41614943.71172378 22849876.370021034 57799624.27415755 23732075.192961533 42403555.08794894 22922122.03379069 64167517.045379914 61863137.896652445 37016459.904964514 49959779.13813694 46317395.48545742 51393780.34243331 51462871.42733772 1162136.9682078732 85647210.21657982 99229926.68143973 47677232.992006905 30532002.875909314 31827761.216952883 55465041.49803735 28133539.838453922 80834121.24569853 37106933.898060806 12690329.087993395 46641652.67531472 16123643.761253372 42372814.12805643 44508129.24774855 20933433.299803093 49104889.3636861 82379851.0863891 52862789.072041646 48558375.33568755 40644932.72842354 48760733.23230009 62733859.486760564 34835458.26809582 57312998.736367315 52908567.58221256 19906203.86929326 45899504.655566305 54399403.849292636 52415347.957889415 47885405.554520205 33927051.24528029 40686985.87810156 2707047.2941867886 29669979.072803814 60841212.80796355 72139000.77308182 46171306.779395945 52375903.36970973 51027766.91582356 56155511.49411929 57344151.944980964 56114840.703386165 17525827.050259374 23969347.570950326 50123576.37380544 30224451.054707963 28338868.432401534 52624311.4719295 40579488.71502722 50056274.604228 20999611.272460308 9901471.737953119 50078468.97634762 10708756.835430745 10665985.294280097 43423478.603868164 45327770.360619046 61968522.699637964 56953276.967495695 48151569.34061982 49569535.955349565 61