# vtk DataFile Version 2.0
Really cool data
ASCII
DATASET POLYDATA
POINTS 1947 float
10.0 25.0 0
10.25 2.5 0
14.75 2.5 0
15.0 12.5 0
20.0 12.5 0
20.25 2.5 0
24.75 2.5 0
25.0 20.0 0
13.625 5.0 0
12.5 6.125 0
11.375 5.0 0
12.5 3.875 0
23.625 5.0 0
22.5 6.125 0
21.375 5.0 0
22.5 3.875 0
13.625 21.5 0
12.5 22.625 0
11.375 21.5 0
12.5 20.375 0
23.625 17.5 0
22.5 18.625 0
21.375 17.5 0
22.5 16.375 0
12.5 15.5 0
20.0 15.5 0
20.0 14.5 0
12.5 14.5 0
10.00403225807093 24.63709677361622 0
10.0080645161563 24.27419354593253 0
10.01209677424696 23.91129031777318 0
10.01612903230577 23.54838709248107 0
10.02016129035602 23.18548386795797 0
10.02419354841103 22.82258064300752 0
10.02822580648097 22.4596774167125 0
10.03225806456681 22.09677418898731 0
10.03629032266798 21.73387095988129 0
10.04032258075012 21.37096773248903 0
10.04435483879861 21.00806450812494 0
10.04838709688005 20.64516128079578 0
10.05241935495465 20.28225805408125 0
10.05645161303756 19.91935482661994 0
10.06048387112473 19.55645159877427 0
10.0645161292065 19.19354837141498 0
10.06854838727757 18.83064514501887 0
10.07258064536606 18.46774191705492 0
10.0766129034346 18.10483869088549 0
10.08064516151669 17.74193546349787 0
10.0846774195907 17.37903223683728 0
10.08870967767305 17.01612900942542 0
10.09274193573161 16.65322578415481 0
10.09677419381719 16.29032255645265 0
10.10080645190677 15.92741932839017 0
10.10483870998482 15.56451610136578 0
10.10887096806891 15.20161287379791 0
10.11290322615036 14.83870964646787 0
10.11693548422069 14.47580642013797 0
10.12096774229187 14.11290319373216 0
10.12500000036691 13.74999996697819 0
10.12903225842383 13.3870967418552 0
10.13306451647886 13.02419351690233 0
10.13709677451437 12.6612902937063 0
10.14112903255518 12.29838707003324 0
10.14516129060447 11.93548384559769 0
10.14919354865313 11.57258062121796 0
10.15322580671374 11.20967739576328 0
10.15725806477384 10.84677417035441 0
10.16129032281338 10.48387094679534 0
10.16532258087472 10.12096772127496 0
10.16935483892187 9.758064497031445 0
10.1733870969857 9.395161271286613 0
10.17741935503843 9.032258046541457 0
10.18145161308684 8.669354822183982 0
10.18548387114214 8.306451597207326 0
10.18951612919923 7.943548372069355 0
10.19354838725904 7.58064514668658 0
10.19758064530033 7.217741922969729 0
10.20161290333043 6.854838700261147 0
10.20564516138313 6.491935475518151 0
10.20967741944725 6.129032249747367 0
10.21370967750003 5.766129024997362 0
10.21774193554038 5.403225801366053 0
10.221774193581 5.04032257770997 0
10.22580645163059 4.67741935324665 0
10.22983870969496 4.314516127453131 0
10.23387096776351 3.951612901284103 0
10.23790322580145 3.588709677869551 0
10.24193548386297 3.225806452332522 0
10.24596774192589 2.862903226669555 0
10.59615384879596 2.5 0
10.94230769598397 2.5 0
11.28846153932223 2.5 0
11.63461538477885 2.5 0
11.98076923215367 2.5 0
12.32692308114312 2.5 0
12.67307692536209 2.5 0
13.01923077070862 2.5 0
13.36538461224543 2.5 0
13.71153845566042 2.5 0
14.05769230141394 2.5 0
14.40384615085709 2.5 0
14.75892857144616 2.85714285784649 0
14.76785714288078 3.21428571523109 0
14.77678571432 3.571428572800198 0
14.7857142857668 3.928571430672074 0
14.79464285720148 4.28571428805915 0
14.80357142863987 4.642857145594823 0
14.81250000006625 5.000000002650031 0
14.82142857153606 5.357142861442594 0
14.83035714299431 5.714285719772646 0
14.83928571446538 6.071428578615361 0
14.84821428592949 6.428571437179454 0
14.85714285740048 6.785714296019075 0
14.86607142885319 7.142857154127467 0
14.87500000027791 7.500000011116425 0
14.88392857167472 7.857142866989042 0
14.89285714308988 8.214285723595362 0
14.90178571450818 8.57142858032706 0
14.91071428590076 8.928571436030644 0
14.91964285725977 9.285714290390665 0
14.92857142864635 9.642857145854018 0
14.93750000005199 10.00000000207956 0
14.94642857145045 10.3571428580178 0
14.95535714287157 10.71428571486281 0
14.96428571429883 11.07142857195331 0
14.97321428570877 11.42857142835066 0
14.98214285713628 11.78571428545122 0
14.99107142858074 12.1428571432296 0
15.3571428591223 12.5 0
15.71428571719138 12.5 0
16.07142857423201 12.5 0
16.42857142974857 12.5 0
16.7857142846084 12.5 0
17.14285714112862 12.5 0
17.49999999772317 12.5 0
17.85714285297952 12.5 0
18.21428571083795 12.5 0
18.57142855939082 12.5 0
18.92857141386655 12.5 0
19.28571427430228 12.5 0
19.64285713574168 12.5 0
20.00892857145444 12.14285714182253 0
20.01785714288121 11.78571428475149 0
20.02678571430391 11.42857142784392 0
20.03571428575173 11.07142856993083 0
20.04464285716307 10.71428571347709 0
20.05357142862058 10.35714285517672 0
20.06250000009985 9.999999996006125 0
20.07142857160473 9.642857135810823 0
20.08035714307449 9.285714277020388 0
20.0892857145293 8.92857141882806 0
20.09821428593644 8.571428562542428 0
20.10714285739586 8.214285704165588 0
20.11607142887573 7.857142844970847 0
20.12500000035236 7.499999985905506 0
20.13392857174129 7.142857130348313 0
20.14285714310267 6.785714275893214 0
20.15178571450528 6.428571419788685 0
20.16071428590087 6.071428563965252 0
20.16964285732718 5.714285706912793 0
20.17857142873676 5.357142850529643 0
20.18750000014888 4.999999994044952 0
20.1964285715605 4.642857137580068 0
20.20535714293256 4.285714282697754 0
20.21428571435444 3.928571425822371 0
20.22321428574628 3.571428570148774 0
20.23214285715693 3.214285713722903 0
20.24107142855655 2.857142857737868 0
20.596153845103 2.5 0
20.94230769181397 2.5 0
21.28846153698369 2.5 0
21.63461538161964 2.5 0
21.98076922946485 2.5 0
22.32692307653609 2.5 0
22.67307692028468 2.5 0
23.01923076562454 2.5 0
23.36538460449588 2.5 0
23.71153845024273 2.5 0
24.05769229413811 2.5 0
24.40384614838844 2.5 0
24.75520833333718 2.86458333360238 0
24.76041666667798 3.229166667458308 0
24.7656250000173 3.593750001211001 0
24.77083333335809 3.958333335066103 0
24.77604166670141 4.322916669098772 0
24.78125000004511 4.68750000315787 0
24.78645833337953 5.052083336566992 0
24.79166666671298 5.416666669908391 0
24.79687500005813 5.781250004069072 0
24.80208333339111 6.145833337377437 0
24.80729166673437 6.510416671405975 0
24.81250000007497 6.875000005247864 0
24.81770833342114 7.239583339479573 0
24.82291666677311 7.60416667411762 0
24.82812500011363 7.96875000795414 0
24.83333333345632 8.333333341942213 0
24.8385416667967 8.697916675769235 0
24.8437500001361 9.062500009526882 0
24.84895833347101 9.427083342970692 0
24.85416666683082 9.791666678157132 0
24.85937500017594 10.15625001231616 0
24.86458333353615 10.52083334753068 0
24.86979166687154 10.88541668100752 0
24.8750000002114 11.25000001479821 0
24.88020833353079 11.61458334715515 0
24.8854166668455 11.97916667918503 0
24.89062500018088 12.34375001266188 0
24.8958333334951 12.70833334465707 0
24.90104166681805 13.07291667726343 0
24.90625000014924 13.43750001044626 0
24.91145833347969 13.80208334357788 0
24.91666666677206 14.16666667404435 0
24.92187500007075 14.53125000495268 0
24.92708333337507 14.89583333625455 0
24.93229166665025 15.2604166655177 0
24.93749999993438 15.62499999540688 0
24.94270833326972 15.98958332888 0
24.9479166665939 16.35416666157307 0
24.95312499989663 16.71874999276385 0
24.95833333321826 17.08333332527833 0
24.96354166655782 17.44791665904754 0
24.9687499998933 17.81249999253098 0
24.97395833322337 18.17708332563618 0
24.97916666655323 18.54166665872609 0
24.98437499992156 18.90624999450882 0
24.98958333327948 19.27083332956353 0
24.9947916666537 19.63541666575921 0
24.65909090697006 20.11363636434331 0
24.31818181387862 20.22727272870713 0
23.97727272112545 20.34090909295818 0
23.63636362933978 20.45454545688674 0
23.29545454074166 20.56818181975278 0
22.95454545175678 20.68181818274774 0
22.61363635870555 20.79545454709815 0
22.27272726938004 20.90909091020665 0
21.93181817642107 21.02272727452631 0
21.59090908415283 21.13636363861572 0
21.24999999070893 21.25000000309703 0
20.909090898365 21.36363636721167 0
20.5681818062032 21.4772727312656 0
20.22727271532826 21.59090909489058 0
19.88636362288735 21.70454545903755 0
19.54545453222531 21.81818182259157 0
19.20454544067146 21.93181818644285 0
18.86363634917439 22.0454545502752 0
18.52272726008306 22.15909091330565 0
18.18181816691119 22.27272727769627 0
17.84090907624678 22.38636364125107 0
17.49999998161302 22.500000006129 0
17.15909089129634 22.61363636956789 0
16.81818180107666 22.72727273297446 0
16.47727271035784 22.84090909654739 0
16.13636362113641 22.9545454596212 0
15.79545453028867 23.06818182323711 0
15.4545454400335 23.18181818665549 0
15.11363634812483 23.29545455062506 0
14.77272725866684 23.40909091377772 0
14.43181816866006 23.52272727711332 0
14.09090907805834 23.63636364064723 0
13.74999998745307 23.75000000418231 0
13.40909089754563 23.86363636748479 0
13.06818180839043 23.97727273053652 0
12.72727271853859 24.09090909382047 0
12.38636362812021 24.20454545729326 0
12.04545453791708 24.31818182069431 0
11.70454544876188 24.43181818374604 0
11.36363635991656 24.54545454669448 0
11.02272727049761 24.65909090983413 0
10.68181818161208 24.77272727279597 0
10.34090909059876 24.88636363646708 0
13.53936447392977 5.430518861761812 0
13.29549512714208 5.795495130527656 0
12.93051886163336 6.039364473982978 0
12.06948113743464 6.039364473596931 0
11.70450486924562 5.795495126915347 0
11.46063552506678 5.430518859339278 0
11.46063552603309 4.569481138327832 0
11.7045048727207 4.204504869609567 0
12.0694811382365 3.960635526070925 0
12.93051886277896 3.960635526491545 0
13.2954951309342 4.204504873264463 0
13.53936447498188 4.569481140778189 0
23.53936447355998 5.430518862654571 0
23.29549512629944 5.795495131370292 0
22.93051885878755 6.039364475161753 0
22.06948113763989 6.039364473681951 0
21.70450486886492 5.795495126534648 0
21.46063552518245 5.430518859618539 0
21.46063552641138 4.569481137414567 0
21.70450487359473 4.20450486873554 0
22.06948114105052 3.96063552490532 0
22.930518862583 3.960635526410373 0
23.29549513128127 4.204504873611536 0
23.5393644748571 4.56948114047696 0
[...]
CELL_DATA 3556
SCALARS Von_Mises float 1
LOOKUP_TABLE default
5147375.667610729 67757974.380526 55243741.98326425 60184772.55971379 60084620.589702584 64616755.84073553 216401568.47151598 60397544.90430733 93747171.9638388 77070662.50038235 8274043.300246062 85765075.24132115 55917256.767837584 71849074.65242076 46241881.25103534 62084498.411734946 100576090.40469372 23803097.11107555 11116419.227369135 61605172.615075886 43516528.18445792 74455070.17634073 9134984.815734923 64517848.42089029 65668189.30791054 49727943.45011891 68723074.40934768 41848545.363035865 8944525.863101723 61956956.79925176 73226585.12061891 62640311.438140035 76785791.05468738 73236846.86813615 83766030.26954459 60225846.56766959 61217358.511253476 45334302.97729113 67425115.09502155 72669707.85253443 29895013.52572289 29591494.618773088 66850692.15727928 60112937.18812774 47359280.9952392 1285287.422582508 65313394.191598564 71777509.50863364 127757433.98165062 59793106.3348917 63768918.60383446 41770887.67912762 11168940.54269649 11454239.6436183 9557952.43477706 19351860.57611826 19374010.31824362 23136607.65546566 21426677.739940107 67583090.1047966 25612660.29194357 39919995.122817434 60629502.81470869 69898265.92544818 11226663.738995062 77343019.42221741 169022244.82811058 54405163.468894444 75711792.0113966 61880739.90421421 57646329.48380399 71908127.69157082 65628061.711068645 59752908.42305431 53272327.98420879 41906728.26370224 68525595.5334623 37778098.20323293 63310493.6580156 34245894.11108608 166614106.88767838 63667289.99593806 78017223.88939717 71541341.53230456 60376871.70550926 76353593.2400559 45478813.963448755 72265720.82082246 68314108.2190956 31038799.03949611 50937909.82790349 71538189.45347528 71640486.18067782 61353871.67131849 44666143.76793264 53226777.549300484 65789410.514142714 64812947.47689917 63435681.55113808 55584218.899536125 49772324.52761125 43126295.162159346 39604034.81036615 10044493.123042597 74201440.29752825 73670681.45401217 69412509.8269553 22572068.054626096 76956128.71196267 71260661.78791949 51514794.12580932 60834431.7000993 9970252.777747633 77237074.6025613 32608607.714464772 79230206.1247575 48001220.49564545 27707377.957590487 1978226.6373070998 55420983.60054617 64812052.70052516 49227532.69475167 25441537.86947769 17004899.759466097 60805051.29125768 31020567.23100924 63517548.41225437 73578365.96225905 50021214.55108536 81140361.42341515 63963540.74477156 55349839.4030304 39434986.57877701 16762843.78534684 9603057.460554974 23293504.378537048 52596597.34816264 34103244.6785742 22510840.592265446 22077358.42422145 25529653.044359256 2438822.9077782044 34024317.26322127 67281620.80400784 165468925.87169886 50164373.114554845 58908658.39518213 54476920.025546595 23476605.8972031 54208821.23744564 80752960.3712213 69728240.13369532 8724228.117295925 58326684.78498654 65260189.255948566 30632283.62702448 23220624.359588917 342405936.1183021 46735343.752208814 81144105.18800281 68053906.66316743 71885553.1710782 59932024.86772414 24324901.229418978 54967189.22292632 78487782.50912781 170295074.71869648 49730828.55861306 94525260.11528526 64526538.966892526 71991632.48225766 24992082.791952666 71268537.41908132 70915433.73772106 47524100.55569726 38216393.94749036 64982681.080542944 72014817.41593777 31565046.114983976 29802432.62020239 84075065.63379763 85743323.98282343 73924346.22427203 71811867.84895486 80823196.04501782 74048715.9322483 7861818.170839666 7933412.896264047 7876696.821463448 68353188.86829317 63412522.290969215 63570135.75127168 146610388.95031795 49474423.101432934 45900091.39801585 25814553.44173827 49399142.52023837 10145129.968733191 5894917.898798574 40037217.19937989 47887915.335493445 67908614.4053364 12008744.470980244 25222160.32320881 87674872.24281815 53556958.908177026 69278505.41699986 60700419.90435341 66368504.35477885 48568536.24781466 34385229.76701685 54599910.97575429 22883216.204216335 53380253.363571316 61156395.17292032 74976839.37727003 30555685.250919096 71155797.34941854 11969815.273637556 115599508.15020877 64593694.901421845 30441261.480592508 18372615.567411263 18858146.753182497 68115531.69297208 67695011.73397946 64732949.09794397 73663285.03697841 23243828.53043616 63367571.35662503 132709648.03754692 76469433.42356557 54688388.89054309 60264345.83909482 30482084.446171276 17486342.701061003 73323297.29792565 69115744.0702613 63464877.45577994 57883619.90566598 89426480.78017437 48296849.17655951 60203426.14426467 44269993.015705824 16606690.305878226 45310315.15211808 70784020.08149458 80435399.04644655 14148982.573404446 77349187.70776635 15538783.21555171 48834549.59398074 40975635.41983341 70267939.30039738 36871330.53523736 40408356.81278251 3057958.56089312 77432436.21626799 67534618.52406162 69106533.29968609 28476997.786218036 17098311.952082686 57960282.72758197 59278761.068213366 35606574.91574541 51094817.93670749 43748340.951719575 58299697.602583654 64231593.558668464 60602707.8835784 67085644.9802764 34187683.073876835 28014535.2898602 87215341.79144685 53763702.45836219 20701104.966499675 23089931.600073226 63645527.82489991 62559586.73075477 80725957.2921289 42072733.18822563 31161101.027045924 81371215.30036196 54988389.426569276 70663276.96075797 17166393.629650492 80617515.60563913 34569257.34277591 66235585.0554561 66318969.678373866 1962853.3182915968 53094048.39168976 28926416.141481455 70725758.67628135 94856358.4791465 71324748.71219096 17976712.22183258 39545449.0662917 72550059.27293094 24972652.728483997 63467576.95392307 73007504.81026866 38671682.15105699 49177340.125772595 54062879.29991898 58593586.541546375 72753591.1972344 24794327.52475929 68618567.55433676 69156542.68714078 96297703.6615084 35547405.10421039 27106689.435673222 44306389.9688203 22149039.691974536 63200673.39573524 62934060.61731026 19848799.419485796 51695587.81732219 102507308.6001237 31114984.17696131 58728134.08444842 80756896.54496637 60897111.91833729 64735851.81955195 63530057.12303086 55231973.296467274 36032833.20786119 24019961.55691989 62397741.92902694 11755208.35051065 1184932.7230564463 62872185.90189995 27255645.887692418 59298441.923748314 36560840.59891525 69860957.76043922 20727468.40382105 20661575.461157493 32967994.8402642 47415536.82292916 50014153.773528896 34608042.81886895 45924587.236739896 49153278.25564664 51458947.58646034 69519389.84626664 71249191.22577094 63382601.5198768 40178248.548588626 58308690.261476524 73684264.07057 66276645.85290847 53518915.68992203 72717297.20820414 16060974.834302383 31273616.838180676 70027305.87143731 53488798.79491951 27535869.83935638 52232822.218117096 64609728.43910753 42605779.01307543 57376264.54170066 6663455.531496866 50818091.36337692 50012236.64715051 60667926.936643295 54723457.32350742 70442736.37314329 17034553.18569723 17124994.163108125 84367804.13832054 37055034.05636746 53991513.59410689 85665257.11606541 8706444.547308959 65465599.00344256 54101366.69802883 14562554.388879748 73947648.705308 59634917.43515614 14739796.894478677 52545089.63688922 50854733.15261121 68054733.39852804 50256942.52999094 30747878.553778466 51496390.698876046 60690387.491523035 76335768.27345134 16193128.78452881 17293067.616355732 21956022.06071939 109757714.95062499 64581970.06288767 31439159.786310572 27556396.09778075 15929174.229519576 63068171.137070514 15243226.240626233 70307334.70473322 74322298.30825478 62163828.05772959 71970620.02468976 80859576.82691611 77469386.68127617 83889596.81385729 61079101.11542494 63742420.89788647 62702888.58625343 109994880.02783732 160107584.1752492 70037232.9249152 59747264.18924443 10256182.261038743 51932115.58161246 70350007.7657811 39548343.086301014 27734877.342509624 51343514.047395974 72816637.38051648 57516726.146367736 78378465.20411786 68459738.07286833 26045725.262735218 68356564.29419903 48095736.18261404 85169387.50232409 63845842.558586046 71263808.92572607 52002825.21303685 72221278.87988214 51517692.78264267 62350926.90041893 76241417.35563008 35547183.13864142 52667723.08875112 7655793.470192604 69403643.39584874 28069988.214363843 28594982.53593285 38155900.160835855 123917137.37309521 62626189.46255477 34129226.46934166 75269184.95309137 53491609.280487 76079458.02236778 919155.1220876632 42817330.785515025 32154772.406985544 743193.2495301107 36848165.982278936 24103163.262858894 24103163.262858894 22936931.927281592 37183277.62215898 71752568.84582709 18684762.15601787 77154541.5123182 34909117.251464 63308502.402634904 35369794.895271465 10169506.584753567 64667669.53771789 18014935.939877655 130631265.11889942 74211645.90897764 46268187.5960804 91059613.93209232 65747761.78434046 72277680.34293786 64708475.82090627 73522550.95367263 46277322.95373936 65963630.021230824 48413778.41565687 79014616.03260055 1552528.5362015306 70607383.62998846 51263761.45610977 59600522.51017712 83277800.69777405 63176594.177263655 44415377.441306844 37355414.54833697 68774807.26970941 73347336.40571125 93822098.67497222 27412564.879285682 6599531.854096546 59705233.229564205 63011585.06538076 30735370.15421534 67667152.10798801 5410372.348446144 32373714.648675356 31606192.39627792 75751983.23250802 9581684.024655042 9392749.3579266 63110719.34992431 31222181.774095036 56523538.437858805 116850787.90873674 60614547.38739132 28490272.318779886 115418675.19713515 60471338.92888391 70683810.82719932 18539844.58627759 77086962.56970373 26880185.275796186 46638140.45373547 43124286.25519683 43127972.84778152 57489535.2950931 89098209.89955132 135046084.87817526 70975857.10057433 50419599.392361194 24011555.863827158 127895181.69073233 14588296.191523356 53088798.187561825 49387053.131046295 54640444.63283803 151516373.9547701 70176621.44816609 64559119.97580007 26080994.928192362 62816057.381985016 14016760.939914957 62903007.8589465 51919754.293500364 70251925.84666318 5052510.231782447 64535373.94292719 49226733.14862703 18088425.612127252 74127066.59472774 32275373.78227375 72758311.08183669 6224389.194316488 60630403.692492776 8951181.781141901 70286383.6276681 77109517.59140055 33649794.42859443 40735511.75613877 41985979.909376845 23988013.001796562 75705201.68542124 60557723.46025991 35555653.56980452 62004701.469875336 72955258.90600477 32638885.353968486 29167548.97208467 29153126.21617055 52069258.68611144 65554511.346630625 25667873.612019707 55390250.025496654 17544240.158633146 46131830.65459142 72525617.09739189 51164667.749009624 29086369.001315173 77546589.10798196 64195378.045946024 64672616.369801 46157872.39881936 61101721.08304585 15354687.47072074 74156006.81015068 46261119.111629814 43701091.251956835 41516391.93194809 56505207.37380276 42629193.33898409 77584031.38774619 39648362.37911978 63826113.01507442 55829805.30012098 56582324.62478636 45256118.056402974 68232254.19330528 77433725.19132464 29561314.873482592 71521987.52289951 70275428.50631122 4652508.098730186 44470551.2248744 49387585.640137725 48849954.38217488 64734795.22665049 73429849.66056223 57130118.724830665 107893091.53813145 9775720.674978172 35521414.43847373 53589645.762841344 45559869.79426834 87806557.0955593 24930094.538320825 63614833.82591184 105743343.35183689 64462338.783331305 54057966.37162678 60565388.719722524 50328100.04097071 32508840.46991379 124129513.6088242 68877356.82955211 48059140.081878036 71232129.1478493 59267701.24685888 46732581.40207498 30784680.211713467 28741870.02065862 57934984.04158008 70318104.56461985 66114737.690263934 64668407.23006684 60878545.50091814 129894618.21000497 98065884.5201955 57348431.04325398 63363483.23725169 66266410.56878745 3298791.2868176135 66725551.5756163 53174905.37826907 74453851.39818735 58941489.943436086 60267593.93745683 26518049.20518021 85852622.64589818 69251992.63809504 85809198.98227893 42716556.37953876 71133056.11766139 64540102.945406996 74396378.77985124 60897588.52178887 65736988.457217366 34886437.18588662 64748790.37819407 70963547.29236047 88662729.01407129 72819289.9880095 50489952.62444426 60297626.72358964 18235543.187661566 64643663.490348704 81840529.87050621 82411878.34930725 30495391.71623625 72236034.4190389 33635965.36256062 61246446.422127664 76711566.14339547 32769855.706127267 3679375.627298417 72438901.01228252 65599591.989811435 76459146.03428632 66418935.90409779 10928606.600783555 10995816.411237426 47790982.88581614 39963151.49538321 25123945.97934478 7930420.386708288 51144247.90113418 78783513.64905271 9726234.834588155 68625787.60268667 78671372.87391973 34429420.909977764 45856045.15196894 66237597.13391365 49670927.48299231 58381394.09139093 61370789.59813458 3751036.7983667194 18903014.27982146 3590930.0788544854 67452666.85591273 17052935.119072527 48762784.2690956 68593550.97328405 51172006.74733231 67316278.82652374 85766768.55364978 72690335.58170693 103349341.97318615 110277914.95387891 61069828.09381366 32642519.149873637 9849074.253555063 16907729.85113912 24514108.59748322 11705792.322386924 8487421.616742635 79166271.08518586 67781573.81687166 17291450.30236329 17574902.414399203 73333408.68121025 30741041.71670338 83447596.87461221 66075928.258162424 63077258.68187518 61614402.45001989 42638313.75943935 42714643.56830431 24633756.72247038 74840633.88023816 152635470.16219425 69298924.08628966 68152093.69800818 60059477.45150129 25282917.77817761 66625463.20036248 92418440.59459695 44679979.46001552 53606720.31693992 56242954.221533984 119057436.00398481 55665964.09072299 6045896.311150721 66226255.21329543 46794067.34989453 49390707.4011027 89754885.10368831 71356211.80189632 39226550.79946041 59313730.58231453 55697477.59058362 75455163.45527658 137667270.6327627 5709110.621228226 68901764.09938033 72016410.02141552 2588494.5132674617 162346238.93656242 12923477.866140882 2558794.8643717375 48737259.00355711 48859597.82886994 116590165.57596226 71231244.70039396 58426254.62160144 73407561.55552438 37397228.423959315 68666920.6010432 89286142.87401195 5799803.790596735 45113486.47238426 12355064.796469511 48953911.117577866 49508661.49731095 51109773.74885923 34116560.366632015 59373315.06484883 75527257.95661604 43318513.47768845 24674324.321964506 24662590.32045405 67732460.54153508 97395385.88161623 126470901.6469779 64997211.64866369 26159648.80912331 17459720.916788425 60148808.6255593 30675241.935136523 50648378.59133176 42769217.760213815 65720178.509567395 74709724.99726972 65039397.11077618 56975096.10279297 51828000.52681101 29993193.02924958 49864560.04416344 34610497.37411483 44611419.13271668 98701652.230615 48241253.13396357 65255348.75509694 46442813.59489875 44222484.103271715 48786395.265153706 71391830.25377364 66967635.05213527 29173218.040794935 35307148.58730441 33961487.5126239 35127127.82038701 62430383.190390415 61880184.73310338 76165839.54678386 52572189.25377182 71652348.4779038 54744019.96607055 145910755.43953708 63945708.88501455 5567506.905864693 310110701.01083225 62209741.85569915 69096761.21445678 82257987.03250128 81102085.4595322 11355845.259381974 93556505.75947389 8423387.883547835 75374864.50323255 19700989.6010165 24667596.097108174 73190223.5767281 50270132.739085026 46823224.552694984 70719559.41089153 63101496.16000089 72741495.4075473 13508137.203254402 32440189.783996344 44423488.849370874 86438265.0562931 150784004.38128206 77769200.87889586 42225165.070442505 105187138.47312735 67922858.5614842 37234631.11888416 103486031.60177693 30192382.025372334 22503238.030857287 53383427.56911463 72833149.17533776 65257521.8082508 67420772.15593022 64785576.22000623 38074169.263279386 63055847.2430496 71187395.20163034 77198477.78379203 63519757.39039854 66388037.23417107 64595254.80336147 36749969.87809375 76306010.48753658 61816168.59868341 50761848.22790287 73128258.47597474 26055726.41728268 76878427.5229847 58048935.90002074 21679880.414931763 39467733.80975236 76410495.62532063 51545655.00970636 109152393.75789388 63780739.03271364 87932160.88840412 34436996.830704086 68079152.65412177 47126427.864439756 31597164.94050601 65355117.3732151 66819733.82827795 20410976.261921648 24299080.22553972 53040972.336513184 84353280.62983403 47654782.41865656 21973975.026731607 110146091.07132381 34120330.782111585 37197048.91365898 123861116.8189165 43947030.61925587 79353778.5601871 83252384.56925198 64291051.33804735 74855113.33802082 72966512.40388986 52288859.71742402 65205141.10486109 50422812.71800256 48704298.743488 25239889.71420324 24082855.338435385 37849456.666003846 85821756.04606928 31193572.47995985 108509768.10095225 60414819.65538901 50759096.67689941 53667987.461982526 64847963.46760425 59796826.646107964 57689415.64830354 21239219.619666282 63568108.10279663 47806916.44795553 82041038.1847267 43619879.16077741 17410839.839645345 64905534.718769066 67828484.31297868 62867358.751017906 87256088.83454643 4357596.055618148 4278938.346546565 62466217.856452785 52619158.93371319 17828268.741836723 61596561.47115396 78491783.32460131 51156732.20500115 23023803.11650305 14647627.295240546 51830769.06391883 17949729.544318974 61982140.82179952 54677620.05136335 12729449.466474412 96717045.16445991 75837297.98855112 89803516.13647757 70105085.82323584 72094038.93716848 57577514.05541696 59890805.5796895 46597002.09194094 70372383.13180146 49690892.985439986 83141689.80045125 64401568.28476266 36106475.23096586 63747646.67488163 84561327.97881947 48143444.60588941 75812262.02308151 9187779.495247021 33936455.939188175 34044044.12459882 37602602.38299389 28774068.248047125 69374339.73308735 85719979.28851753 57652450.64463455 46451618.128481895 49826695.722450286 71253200.89506607 81190922.18038617 85836321.01586738 44891632.115976095 54886660.81064294 62958431.457462296 62673118.49724759 78802406.0195869 61028091.99609944 84084588.8249719 59452173.19008454 70650605.50062543 74929259.9180652 75151715.2623869 74949765.55107261 33518355.908425644 73905925.2672176 27343787.251735322 96022764.38523363 66284841.760458805 57334320.25732668 66199484.60436302 92776310.73712294 71405448.6038372 73889090.29000951 74959967.0444939 46063858.460414544 46121349.92320925 62019550.41647712 31447084.059408974 63463560.21506742 98200962.7937143 70852123.47066869 42306134.85750649 65151783.61965991 38954604.995398894 72435318.22136256 11549194.828618769 11850245.257921536 12000910.702733656 50463459.66845313 32991929.9339192 67384801.10511744 59908678.14758995 147985793.94119102 74646263.4609562 36606348.347434536 68563385.70307423 63772059.48369696 62737569.53511801 75246379.56816903 67374009.28365299 62259540.011965975 26706565.394335747 53316817.99961142 148520781.56753358 69080391.75297092 41049326.72788531 64105683.42172302 66860158.105401784 40879951.834899575 25692095.08786087 63588112.09777011 50495527.99864036 79865759.76239896 78651446.34255399 66833753.41093586 70810774.21290796 64754378.557901874 62133002.371280685 18965730.286769204 71712720.97912973 6020485.535021014 21991796.950404808 45752145.415028416 63397025.78989307 51614711.44222202 67785878.73858848 20283433.195930757 13975260.565824024 63062908.868427716 53873511.769640855 53211981.80500867 54233641.82387325 33301757.176450398 50727556.75126155 60122234.498240024 126194219.37977 11248645.740126008 61903367.45383755 48617978.81518203 60691144.811084725 42940727.81831937 73697939.71097498 76821972.28527868 62096310.828426264 42988150.07501975 36590231.61234907 63145687.103648774 85834560.012428 61617297.73005329 55535378.8059644 81206542.99328534 46065105.16856543 66606413.993105724 49379719.5496551 39366097.64877484 65058270.15483915 44129503.64298447 45723559.86984747 68447856.41694316 72050928.71512821 46154620.21310648 52115102.305075034 24847814.834144995 101137628.3751536 68013412.56010193 51980771.161132954 10868603.970358893 34716947.38749053 64563943.633559965 62957176.496231765 45818878.250265606 50705527.69036441 65854848.25965734 63075101.83171997 91253881.5140377 65824042.56462264 68130839.97395642 68248767.83775407 46350612.4411753 65217573.951299064 40013248.775704905 43924629.97900058 70707455.38301979 69654877.00547977 15281051.335622