# vtk DataFile Version 2.0
Really cool data
ASCII
DATASET POLYDATA
POINTS 2153 float
10.0 25.0 0
9.499999999999998 2.5 0
15.5 2.5 0
15.0 12.5 0
20.0 12.5 0
19.5 2.5 0
25.5 2.5 0
25.0 20.0 0
13.421875 5.0 0
12.5 5.921875 0
11.578125 5.0 0
12.5 4.078125 0
23.421875 5.0 0
22.5 5.921875 0
21.578125 5.0 0
22.5 4.078125 0
13.421875 21.5 0
12.5 22.421875 0
11.578125 21.5 0
12.5 20.578125 0
23.421875 17.5 0
22.5 18.421875 0
21.578125 17.5 0
22.5 16.578125 0
12.5 15.5 0
20.0 15.5 0
20.0 14.5 0
12.5 14.5 0
9.991935483858025 24.63709677361116 0
9.983870967686876 24.27419354590941 0
9.975806451505594 23.91129031775169 0
9.967741935387979 23.54838709245913 0
9.959677419287308 23.18548386792893 0
9.951612903177157 22.82258064297202 0
9.943548387037561 22.45967741669023 0
9.935483870865918 22.09677418896629 0
9.927419354663494 21.73387095985724 0
9.919354838499428 21.37096773247424 0
9.911290322402236 21.00806450810057 0
9.903225806239442 20.64516128077486 0
9.895161290090327 20.28225805406479 0
9.88709677392396 19.91935482657819 0
9.879032257749005 19.55645159870528 0
9.87096774158539 19.19354837134259 0
9.862903225443695 18.8306451449664 0
9.854838709266936 18.46774191701208 0
9.846774193129884 18.10483869084486 0
9.8387096769655 17.74193546344752 0
9.830645160817648 17.3790322367941 0
9.822580644653016 17.01612900938582 0
9.814516128535823 16.65322578411198 0
9.80645161236424 16.29032255639083 0
9.798387096184427 15.92741932829917 0
9.790322580028553 15.56451610128487 0
9.782258063860747 15.20161287373363 0
9.774193547698067 14.83870964641301 0
9.766129031557885 14.47580642010487 0
9.758064515415136 14.11290319368108 0
9.749999999265055 13.74999996692745 0
9.741935483151023 13.38709674179607 0
9.733870967040986 13.02419351684439 0
9.725806450970376 12.66129029366696 0
9.717741934888643 12.29838706998896 0
9.709677418789838 11.93548384554277 0
9.701612902692275 11.57258062115251 0
9.6935483865711 11.20967739569949 0
9.685483870450787 10.84677417028545 0
9.677419354371613 10.48387094672266 0
9.669354838248523 10.12096772118364 0
9.66129032215358 9.75806449691109 0
9.653225806025599 9.39516127115204 0
9.645161289919614 9.032258046382696 0
9.63709677382252 8.669354822013439 0
9.629032257712137 8.306451597046282 0
9.620967741597934 7.943548371907037 0
9.612903225478219 7.58064514651981 0
9.604838709395764 7.217741922809518 0
9.596774193335289 6.854838700088075 0
9.588709677229938 6.491935475347274 0
9.580645161101724 6.129032249577598 0
9.572580644996847 5.766129024858337 0
9.564516128916669 5.403225801250091 0
9.556451612836 5.040322577620052 0
9.548387096737235 4.677419353175575 0
9.540322580608505 4.314516127382788 0
9.532258064471684 3.951612901225835 0
9.524193548396726 3.588709677852687 0
9.516129032273984 3.225806452329359 0
9.508064516148213 2.862903226669649 0
9.852941176575179 2.5 0
10.20588235384425 2.5 0
10.55882353096536 2.5 0
10.91176470721401 2.5 0
11.2647058842994 2.5 0
11.61764706100214 2.5 0
11.97058823810794 2.5 0
12.3235294170403 2.5 0
12.67647059214862 2.5 0
13.02941176563702 2.5 0
13.38235294061013 2.5 0
13.73529411351178 2.5 0
14.08823528775529 2.5 0
14.44117646397333 2.5 0
14.79411764123219 2.5 0
15.14705882094263 2.5 0
15.48214285710404 2.857142857919064 0
15.46428571423325 3.214285715335077 0
15.44642857135935 3.571428572812889 0
15.42857142846433 3.928571430713412 0
15.41071428559489 4.285714288102234 0
15.3928571427184 4.642857145631958 0
15.37499999986416 5.000000002716725 0
15.35714285692995 5.357142861400871 0
15.33928571401367 5.714285719726578 0
15.32142857106964 6.07142857860725 0
15.30357142814068 6.428571437186336 0
15.28571428519924 6.785714296015096 0
15.26785714229736 7.142857154052814 0
15.24999999944757 7.500000011048588 0
15.23214285665211 7.857142866957921 0
15.21428571381986 8.214285723602668 0
15.19642857098651 8.571428580269666 0
15.17857142818586 8.928571436282821 0
15.16071428546017 9.285714290796712 0
15.14285714268139 9.642857146372322 0
15.12499999988752 10.00000000224952 0
15.10714285709138 10.35714285817244 0
15.08928571426198 10.71428571476034 0
15.07142857140775 11.0714285718451 0
15.05357142859945 11.4285714280109 0
15.03571428572961 11.78571428540776 0
15.01785714284225 12.14285714315502 0
15.3571428591223 12.5 0
15.71428571719138 12.5 0
16.07142857423201 12.5 0
16.42857142974857 12.5 0
16.7857142846084 12.5 0
17.14285714112862 12.5 0
17.49999999772317 12.5 0
17.85714285297952 12.5 0
18.21428571083795 12.5 0
18.57142855939082 12.5 0
18.92857141386655 12.5 0
19.28571427430228 12.5 0
19.64285713574168 12.5 0
19.98214285709066 12.14285714181319 0
19.96428571422755 11.7857142845509 0
19.9464285713915 11.42857142782999 0
19.92857142850372 11.07142857007454 0
19.91071428566385 10.71428571327699 0
19.89285714274722 10.35714285494433 0
19.87499999981069 9.999999996213674 0
19.85714285679789 9.642857135957803 0
19.83928571385784 9.2857142771567 0
19.82142857094275 8.92857141885494 0
19.80357142811986 8.571428562397289 0
19.78571428518957 8.214285703791473 0
19.76785714222912 7.85714284458249 0
19.74999999927616 7.499999985523064 0
19.73214285649986 7.142857129997356 0
19.71428571378 6.785714275600116 0
19.69642857096893 6.42857141937854 0
19.67857142816632 6.071428563326299 0
19.66071428530542 5.714285706108507 0
19.64285714248335 5.357142849666927 0
19.62499999965938 4.999999993187642 0
19.60714285683545 4.642857136708982 0
19.58928571409201 4.285714281840209 0
19.57142857126215 3.928571425242887 0
19.55357142848666 3.571428569733251 0
19.53571428567042 3.214285713408467 0
19.51785714289288 2.857142857857421 0
19.85294117629201 2.5 0
20.20588235487999 2.5 0
20.55882352693214 2.5 0
20.91176470067818 2.5 0
21.26470587509772 2.5 0
21.61764704895601 2.5 0
21.97058822759501 2.5 0
22.32352940747382 2.5 0
22.67647058455666 2.5 0
23.02941176067775 2.5 0
23.38235293441871 2.5 0
23.73529410473613 2.5 0
24.08823527892097 2.5 0
24.44117645565941 2.5 0
24.79411763635966 2.5 0
25.14705881820279 2.5 0
25.48958333332585 2.864583333595161 0
25.47916666664597 3.229166667390891 0
25.46874999996687 3.593750001159383 0
25.45833333328636 3.958333334977398 0
25.447916666602 4.322916668929952 0
25.43749999991316 4.687500003039327 0
25.42708333324472 5.052083336434745 0
25.4166666665751 5.416666669871431 0
25.4062499998852 5.78125000401795 0
25.39583333321691 6.145833337408416 0
25.38541666653144 6.510416671399764 0
25.37499999984903 6.875000005283809 0
25.36458333316022 7.239583339392362 0
25.35416666645721 7.604166673997792 0
25.34374999977512 7.968750007870696 0
25.33333333308926 8.333333341876074 0
25.32291666640567 8.697916675801387 0
25.31249999972474 9.062500009634261 0
25.30208333305578 9.42708334304784 0
25.29166666633597 9.791666678240944 0
25.281249999644 10.1562500124601 0
25.27083333292552 10.52083334760698 0
25.26041666625816 10.88541668096443 0
25.24999999957175 11.25000001498879 0
25.23958333293401 11.61458334730956 0
25.22916666630316 11.97916667938932 0
25.21874999963477 12.34375001278308 0
25.20833333300986 12.70833334465483 0
25.19791666636482 13.07291667723147 0
25.18749999970019 13.43750001049318 0
25.17708333305312 13.8020833431408 0
25.16666666648339 14.16666667308115 0
25.15624999988681 14.53125000396162 0
25.14583333327724 14.89583333529646 0
25.13541666672773 15.26041666452946 0
25.12500000013395 15.62499999531171 0
25.11458333346292 15.9895833287975 0
25.10416666681642 16.35416666142532 0
25.09375000019333 16.71874999323352 0
25.08333333356111 17.08333332536115 0
25.07291666688319 17.44791665908837 0
25.06250000021687 17.8124999924095 0
25.05208333355612 18.17708332553584 0
25.04166666690528 18.54166665831552 0
25.03125000016995 18.90624999405174 0
25.0208333334352 19.27083332976814 0
25.01041666669018 19.63541666584358 0
24.65909090697006 20.11363636434331 0
24.31818181387862 20.22727272870713 0
23.97727272112545 20.34090909295818 0
23.63636362933978 20.45454545688674 0
23.29545454074166 20.56818181975278 0
22.95454545175678 20.68181818274774 0
22.61363635870555 20.79545454709815 0
22.27272726938004 20.90909091020665 0
21.93181817642107 21.02272727452631 0
21.59090908415283 21.13636363861572 0
21.24999999070893 21.25000000309703 0
20.909090898365 21.36363636721167 0
20.5681818062032 21.4772727312656 0
20.22727271532826 21.59090909489058 0
19.88636362288735 21.70454545903755 0
19.54545453222531 21.81818182259157 0
19.20454544067146 21.93181818644285 0
18.86363634917439 22.0454545502752 0
18.52272726008306 22.15909091330565 0
18.18181816691119 22.27272727769627 0
17.84090907624678 22.38636364125107 0
17.49999998161302 22.500000006129 0
17.15909089129634 22.61363636956789 0
16.81818180107666 22.72727273297446 0
16.47727271035784 22.84090909654739 0
16.13636362113641 22.9545454596212 0
15.79545453028867 23.06818182323711 0
15.4545454400335 23.18181818665549 0
15.11363634812483 23.29545455062506 0
14.77272725866684 23.40909091377772 0
14.43181816866006 23.52272727711332 0
14.09090907805834 23.63636364064723 0
13.74999998745307 23.75000000418231 0
13.40909089754563 23.86363636748479 0
13.06818180839043 23.97727273053652 0
12.72727271853859 24.09090909382047 0
12.38636362812021 24.20454545729326 0
12.04545453791708 24.31818182069431 0
11.70454544876188 24.43181818374604 0
11.36363635991656 24.54545454669448 0
11.02272727049761 24.65909090983413 0
10.68181818161208 24.77272727279597 0
10.34090909059876 24.88636363646708 0
13.29836716804519 5.460937501850858 0
12.96093749805554 5.798367170236416 0
12.03906249886036 5.798367168455805 0
11.70163282969542 5.460937497937477 0
11.70163283195481 4.539062498149142 0
12.03906250194446 4.201632829763584 0
12.96093750113964 4.201632831544195 0
13.29836717030458 4.539062502062523 0
23.29836716853658 5.460937500999747 0
22.96093749805866 5.798367170234614 0
22.03906249972091 5.798367168952648 0
21.70163282978201 5.460937498087458 0
21.70163283146342 4.539062499000253 0
22.03906250194134 4.201632829765386 0
22.96093750027909 4.201632831047352 0
23.29836717021799 4.539062501912542 0
13.29836716891448 21.96093750034519 0
[...]
CELL_DATA 3976
SCALARS Von_Mises float 1
LOOKUP_TABLE default
42156719.27864182 42167338.46777065 38529598.521378525 829298.450791891 830086.97599905 2965491.5045927814 27246892.092328344 40529849.0994843 42962012.75916547 19183993.665681448 42928819.470215514 43971026.86252079 41096091.73914432 3987959.531062917 12508526.942057172 9819104.83363696 41669954.530497864 6377384.319804624 42818827.20389009 37729527.81575435 17459640.8103306 18628852.736662664 11630475.537827566 42830398.432126455 14671361.43646803 32609975.07907466 48411061.16519751 50597727.89481823 40554349.44455243 63197817.44060343 46365182.5954916 46971122.810960926 12943274.569171492 23410250.463775445 39952791.51511286 18178293.24245043 18336160.87381158 39439800.10934972 28140930.34515505 52109947.72838805 53403058.95806247 3777766.478188215 20920234.887009107 50499271.92649149 53213959.17387836 41692257.06078382 37872032.98968423 5334511.834070514 19347672.293848023 23350965.27462549 55166746.89654967 30117005.23749073 8950940.983230945 8792930.256888948 8779421.11894053 63614654.06251281 16039150.542405345 14561041.82158224 36985456.161760636 40550431.3908291 39767647.080736175 40482842.67292716 37970314.3362243 39455955.14284586 9311905.145106684 34674439.65820556 53410645.9173338 40826286.15310676 44362462.220417745 39469233.21729665 49575940.26658958 36361916.30060866 2819750.335600868 41932754.788256936 28499375.304247346 29570867.831926584 43533473.7581975 35812875.57981725 44756474.13709064 37717828.08259832 49963930.212082304 48958974.072762154 6354014.106212325 51601951.59099921 45907164.61242602 17339136.205745503 39599478.39294837 43466827.022569 15311903.537606396 13573826.663135944 75747660.1323994 29839904.98668957 44702814.31609197 40367843.002564535 21134086.872519452 31123407.583044447 37897691.847240895 66997990.71672861 41126529.95763267 13280313.175756551 59113639.00307129 42611039.45471612 35415376.6644701 22927515.305597704 26675437.381248564 45741129.84530008 41414850.71466341 25086654.314881153 23695949.745137483 30035867.742458694 39825467.50639166 38604580.350648046 29176842.728018712 30410784.633477326 45605810.564511456 76152598.05321966 41226752.91854312 41603796.64889858 2701337.413961285 12511872.363181157 23211432.551270705 43295311.2796559 47770491.547027886 34206343.733412825 44568402.71728584 20613094.64038872 6953671.205053143 23311165.25174612 101611383.10577032 8099598.702706915 42115920.37585731 3856046.21826719 51930835.24356879 14180808.4398916 43475914.34397568 24004980.964060273 43025765.467760555 94008390.95867938 1224359.4793916033 1237398.1402997945 103669269.76135753 43759783.242891066 10962926.747784005 40537810.42794272 40043349.2696796 23917777.218650118 22921748.36236435 40838841.320647866 52352940.25907276 65644188.36894092 53422902.14902 40546296.09006059 18178988.219209284 57056268.09942883 49842642.5612606 16135842.529658666 33862757.73503551 39265583.8119771 100049970.38481145 51051402.679109074 44028125.710090175 55158342.30725288 36325565.12508303 40532458.24151252 38046913.809309624 50552046.244688 17427750.14763355 17392833.239906114 66530734.563397676 13145972.789205672 43919964.259656005 40078600.62404989 24500832.762697633 15945255.73488314 5458294.254878394 74526044.92800574 44090311.81209523 94340181.79761302 45845172.08105777 40029291.776484445 36821945.516425535 31118014.417452637 61841148.960244894 23663164.091822892 45608839.467971444 49034565.991699226 43853560.52547354 43919979.04865229 43328580.68114782 32158089.99908584 28319852.24206795 16340012.393039024 12721708.127032382 50405579.90643454 26326195.05393113 42198828.81728923 48712686.091424845 23355568.73020473 53394393.76693363 41636502.17090239 50595302.105158545 17733082.35265665 39146264.02998131 27846541.287060224 50155460.856114775 80813300.96954714 40389682.182497784 54987530.08164941 35456672.186494716 25285979.859418318 166948689.54692996 59796214.24674495 47760344.846607365 51429020.548102684 5348614.4586745445 5318958.733610654 48526677.627991624 30467633.29167693 47106747.97139442 42814002.67201155 50317446.74818334 14082088.196053898 2067400.8141286743 50004757.60914271 49515380.702917375 34493001.30456641 2344940.741055709 2361374.801212067 47727776.54209478 20910932.53235487 43659937.24109839 25167835.185517605 41924652.229184054 41517881.56774551 43216892.405563064 40082353.72077953 54901995.13942169 41352235.68780095 31293417.334650975 45167490.12602021 57435303.253275275 14980171.009791763 50328843.76392115 44529448.20455889 90749644.16427544 8810997.665825311 8816274.809262127 14814317.082475236 22943738.062000975 22851216.075163674 39656229.542354785 58617311.5329966 27416399.989187084 51172691.550710835 113415455.18028216 51376948.92500674 35681503.91194817 41642487.86858333 40708942.908274606 27249901.35269725 40777140.5920263 43608240.34894587 60922450.812531635 47121272.67572915 82988529.2481072 40737929.89395038 47440265.85221529 33736082.1578053 23960308.206264727 40852566.07417484 22558878.0851274 43679125.3367042 37610842.19981917 77971971.99669796 47355981.78228904 51300255.586180344 13746299.095568493 12264572.05738832 74607807.10064295 33685444.16856978 45870684.478726044 42875376.88243225 40685925.54800561 107181566.21943742 24173113.576263446 40588554.58046879 45397373.95671596 69347847.34850666 8235726.81025432 8169617.61495787 38208505.58038788 13956456.465415085 16017529.106388137 38934633.36743319 45269875.6556802 45237319.46977141 56399272.19661217 42374459.06073651 53253058.96627729 47236556.046842046 39657956.236851126 46905219.786973394 16797997.616334576 21867432.1082015 41350504.414737925 41369334.227034606 23473504.687227827 48406279.55904116 45159963.11854968 30790807.170696724 49708908.16544342 59564989.87445265 41105277.69140735 12492632.222661046 51047960.32953196 40551311.513036124 40886020.741581894 46155887.582788 17331285.826432753 40116930.8554331 44841340.777932726 41075810.58810426 44388590.99186555 10849001.393037466 48629526.03649424 49543300.04912932 40621038.16393731 43316218.54707104 47446124.526482806 27184562.73098928 30015292.58133844 47115719.96203551 41246382.998627245 62766767.08810669 56080289.06139396 5911904.090070757 42131196.113657355 51845036.400487885 41952836.86069361 45794499.80935131 14036116.118079673 8355209.210319654 46254372.53120112 38906091.66014542 36900439.09681755 53763412.8834038 49189096.312085636 61087638.99890321 13795039.162730165 13722024.181127423 41799185.71372793 29438925.59483415 42100984.47232847 1089118.8445621151 18635654.958525605 50266236.276642986 39561600.92634477 49540142.843586564 21300288.453424733 15339623.191114115 54086984.9458935 46447730.42859462 49389744.493800946 28642556.687844664 8547202.602151005 11838329.741589397 45584837.8076274 34515626.24165577 53313645.35263243 23398492.399823785 42120405.476036206 51719518.65086316 41689967.306468956 46068114.41567591 35294114.3515875 11596919.618737265 32421617.29115163 35600947.05988588 44976714.56410761 14008978.69369061 14060149.940499168 8002205.176550169 42290591.883907765 46737818.35888251 47332811.55214068 52574237.097462155 17591223.039880726 31857902.49914314 44282186.60774421 26367055.41321545 26472028.275567543 43811273.75164992 26611204.22866692 26693958.101114355 34857784.21819788 43675288.72173946 53650599.53442243 37047773.12564859 41955985.12125034 48915096.583997145 40983722.80108568 34518045.96940715 7159928.737642094 7243431.127446931 44672948.499023594 80747837.72298785 3213898.322777509 29944339.72684336 27451616.912698634 50069759.85720626 48200223.464208774 32138893.892099615 48729592.827068545 38760334.14316988 43814356.03947773 51239053.19978224 45341224.41865956 2267600.024185991 10287928.59677802 46784115.06789504 45771622.533086136 236163710.36355737 39153465.17567305 43263632.625684656 42829604.87739189 40548273.24689471 42297151.9448095 11755191.460222237 31236815.101146396 40337717.033682965 5935598.165726369 5987145.908065293 44798434.2569907 5003602.297279243 45206237.2677893 69279957.08996074 115881033.57382742 40539619.3878117 29057866.33171144 27061959.54979237 47776278.02660654 31063409.56036657 42388518.48227453 31030928.229911122 42782117.853022784 10639480.742186576 30593075.664458934 44479248.54998194 29384179.802735265 57977381.09481175 31382209.872400694 31301983.185422342 13651174.629964452 76563054.16735922 42239311.49952478 43314925.78562455 40655432.24354443 10271743.399162764 20608124.03794914 49060600.16090839 35851901.83860141 38040278.97047468 41207287.83701332 14358393.606924674 6489611.62790822 45632782.14758782 16305418.268699465 16305418.268699465 21436473.46083207 65975526.20501184 212744385.78856722 36674330.99879953 47157234.389220804 44631888.73954811 37082381.94773132 6824687.285604681 6768763.600743418 23106896.049054623 44242412.78441619 45541675.74517569 30283611.849482637 46410137.717525914 43992189.83572659 24565973.858458728 37283424.94652845 27579966.18462038 11547438.568963956 27184066.49173729 8959501.439541752 48914290.320484534 36532376.59967298 40567044.55787891 44107502.717476964 40783022.440060385 58717770.99334946 7790027.7207701905 42442223.03075807 7004583.102043733 31865521.73784703 2001442.0279249488 48893880.77870431 35205490.656954266 36310337.97563271 43356316.33155639 20654752.25617418 5032976.762893957 45309046.273645625 32536697.85691276 44443704.157341845 4913689.787688532 40241286.06590004 26633064.126880884 18475454.361552224 45797076.21726732 17591249.15689749 49437724.70478125 53470559.86354865 22390068.635942094 38977337.71027541 8121697.600980361 44280325.32974513 49011263.420468405 48337043.64054379 37302422.29423385 10418104.28728571 6433677.665795265 42276417.31327369 40510620.994756356 400203.40750405483 46296711.43262425 40195001.639969826 103378318.10778809 6367620.075911501 45306216.32417855 81888336.28613655 46245260.56091949 48862083.59570782 48189679.521167785 50817199.26320542 36837099.45756497 62767715.06079585 14954371.896788683 14919240.329800487 45361347.63941063 43227314.309381455 39687417.23216425 7681494.7362840595 50010952.66923475 10972814.01007952 10930337.299922101 58660435.104517765 39443226.29217437 30269983.711469404 48626170.09396354 43835254.82170873 40790863.683370404 5271425.426572842 43154829.67583737 35849570.41924976 47232995.80773385 18996281.333232213 44502303.21713847 45018606.462745816 52465217.82354204 25732474.11320275 73287158.74078703 4313615.299489703 27298564.48036498 26703139.12097872 24721127.175218657 20779446.2527464 69706183.59966141 41897632.99261287 43157451.99922922 52000220.751816966 40030223.58948697 30431929.244626027 30387642.60743816 30472155.582182698 572830.0173022207 30439433.634678055 44002546.33939615 43992846.8952501 38961498.71271244 41000887.0179428 40938632.62568092 49522051.13288597 30968313.57993901 40581379.24030778 8821376.000180157 8783828.79590704 583028.4367667222 30554474.735581342 6148712.358913931 43676840.36771658 37355462.8186191 40672607.81717864 11090203.934940917 41477450.037435025 46773745.900038786 56559925.88512317 35990369.54725333 49834549.8810777 41764301.93534721 40453893.00098669 15291745.43105693 45958732.76419695 55493746.026291266 36210313.418350644 44743673.643946335 41098096.884491555 45294932.522233635 12970903.990242423 47474935.61177366 45933342.7335703 45072790.52503641 10485968.299121793 23910030.842173386 42560880.476222984 35308856.37712447 40970048.8580594 14040221.979666077 34960297.04372208 39794389.732364945 13587782.658443347 40586911.48125033 48911744.54897245 62685746.7338975 64253802.113536656 44188713.51717762 7014408.759162283 25055017.773677617 52548970.3677334 38400229.61805414 41797306.60882404 50091338.17552281 9835574.498247696 24329084.150285583 45620768.16801378 4488662.202138199 120033404.0321128 34281724.325482644 5136676.100373431 5163783.327781973 47007046.05526546 46012969.94687486 29840740.786143787 8126516.3689386565 49130585.97033421 42819913.04710317 42037902.89812986 12869023.540797768 15516749.496547598 51751234.46421859 41844702.03137374 36363050.90224437 54311431.985000074 58971391.8553004 60294713.57581685 8151393.086114037 44202704.27414032 103742771.522401 6751187.555687985 45032151.80073631 43604742.742347844 42692322.69235654 31353689.29187274 32737952.223553315 40311754.23080754 27866868.049193364 45715352.87261309 44985292.30781323 47134103.142280445 51613281.86944241 12395669.353001125 12440536.41694751 12100224.329902632 50355660.972702 63679098.516576335 43626313.477693446 45749727.94822105 12033884.844800176 44543253.82002457 53563723.552954614 44024816.18205818 3016602.7645369186 11815139.8750958 18386548.16923024 32348191.421976566 43074079.7769674 40774429.771110095 66707803.34835541 42990625.72379775 40448235.80744571 26652966.941809967 26188315.60154912 27611065.813829545 32131300.365858797 54238574.08746333 22641038.53712439 13183777.130691823 45023550.97132746 5281011.907089436 37552192.32531738 46123467.774759375 44976456.65056548 34817555.28175991 49399630.68556065 22775682.146004643 73040136.83043016 23883846.516544603 56670983.641899064 8669378.654572003 39329295.9057863 42542986.28916199 55106834.93612534 76758775.15683307 56450756.66905629 46278032.82840219 43433532.7815994 45421389.509933166 41501437.06426673 44978257.10551942 76970611.41975422 36475979.5244478 49204103.95504743 35369234.58898519 45606575.644894555 40458869.34271761 3280179.968983529 43875840.41956741 45843723.90656439 4437735.196032065 42850084.30795558 37592716.90047863 43809055.22400013 55658624.19098891 32069984.40332595 42434597.219240054 48286102.53907932 22990416.78715095 58522339.63541339 41311759.124623194 154285709.8157705 1839257.2142719226 22489366.936686948 45496716.53567644 37765203.06004521 37712299.816921845 45534390.2541376 58086035.3795311 44675539.80586717 37728209.8519943 37665578.6006725 42003013.581890725 48360120.17639333 24499436.684083343 42170421.03721803 63047105.47813569 41182080.80447119 17847413.022974223 45175849.81648396 38024084.10408603 40137290.83603114 41904607.63110111 34629361.97802401 31501701.941543024 6533347.443695475 31258429.142001364 63532950.80746285 42421972.40484795 68281138.16100545 58477244.99586411 44530070.633614115 40675304.15537287 47454309.37789251 29514925.342500698 44438268.03049538 510209.89693877794 529308.3724846456 45019231.07715558 38985798.86898144 5878172.270083864 45501284.63325017 46286774.14709947 46406830.213735156 44917428.50192726 24539108.88852479 12126234.587349689 40764543.68562847 10403763.213750387 3123021.327416001 5566647.236150368 33648330.00903863 51703651.419391535 40907743.75501299 41607072.18074759 39584100.48039545 9305695.064624174 55335596.727520056 35265275.67642054 42739635.14023641 12204982.54568039 35804164.98004602 66885055.287438735 51908120.311483204 55156114.32466139 26394778.12210403 68846881.14446972 29403988.711388968 15199884.007970136 23237166.24541849 43849687.18162044 15758509.30083497 48736680.780914314 37333658.77611668 17193431.882990833 36242714.16926971 27067680.43827601 45457171.43996816 52261496.94155714 40535684.470281005 46176163.80043405 10355421.876542658 4978553.78415683 40948561.72272136 75088419.94265643 12697686.394292843 47045170.95271639 42974421.63300678 32896961.514986396 5028487.222287572 5012643.020164738 58805383.81741393 40811598.706265576 42478074.01249455 4185769.0775457094 9872762.722494416 53999807.45577654 35590659.329713665 40691047.74894887 4728483.60318881 4727110.864942574 27954504.02762073 437737.37625434954 28489120.02955964 46425457.012164526 11969809.804074297 39132900.57190858 32712483.80193451 74152248.67411496 41228854.705699936 42936033.606736794 20828680.90284353 29222900.78521578 9165956.97602342 3835509.8789610835 9362952.229979241 45794984.949777365 6571702.05610718 40872314.78222154 46217879.827083215 41338253.09095122 43845433.55460432 28375063.190552626 31741581.226182297 124585053.39414532 2033586.54913618 12390411.361642167 69344253.32222034 1443144.895609514 4267239.274995245 4860968.594023413 43810317.080037646 31887606.220327016 28189733.366195563 11379654.118497591 16059245.103429891 32652279.62055124 26057743.088127553 6682921.252671326 29234959.765964735 75591623.68670201 19000407.613422822 23599619.914469678 50691389.385691345 17544250.218887657 4430205.849247276 94485926.45550367 6663129.994690885 20856590.356066607 44306963.23569117 64855535.56030938 46468558.71354335 12195392.347342879 50803511.95203824 15177367.090092259 41465713.70090223 37151092.53414252 102862892.32984875 42249789.38199812 9057355.738186134 57660164.65045488 44799593.172819905 41533996.21142348 48138471.99318042 63373341.4633248 55895998.34530364 39265132.7629651 53442698.384693235 3880484.334954806 27549190.032700293 41533248.54441246 48420540.5524135 109501637.14715669 8650706.165757915 41895841.430205576 32659271.019068293 45494019.62988657 48542251.81883462 42445115.40128126 49767967.46554607 52894998.99472453 50391854.174926005 2309938.2206983203 4384672.760519014 4405550.515211997 37209483.932657085 5884316.299822935 5865552.606113074 11246445.004896382 17056135.298532657 15861182.885404017 29613868.738141242 7916993.607429053 1358706.2726383493 41910214.74814497 4299551.6220534025 4348696.131875215 7987622.2394164475 17520672.398639083 33847576.29282469 10960649.953936227 12818647.101973483 20054114.470248956 41819945.28253196 41316819.413077034 51255371.554120615 40234047.84764928 45707841.85999264 41916538.96763595 37288483.91498742 48082836.04922694 28935127.24002053 7720347.801093044 7634987.962706922 54549236.556543134 46460443.643873475 54625510.78146113 23223914.104778852 41184975.90920341 69738421.15948717 19962282.49635485 41218296.47436627 18141171.209887676 46138397.881129734 50831370.83430877 42578267.67520854 67042084.4313963 46814950.35986828 48534865.31031736 86860969.10648696 13835536.303827526 20226825.03193519 32811205.63549139 37733714.733785294 85192267.17088573 41411751.58155903 47319810.90696197 14287962.31941615 42745885.77662236 1209924.101274918 1219569.3442934393 38191361.95045706 42795532.39551418 48401771.87218381 45256150.30265378 30187303.556997925 28476496.17263141 51815989.08244916 41592903.44060431 47662400.67965784 2690946.7131045987 47007644.13007013 45223594.50118217 48673363.66197733 39475357.52491788 60700943.077615224 36591953.51291349 44215757.02701318 40689519.55811049 27127696.970000755 39332237.11733645 41493877.010476686 46687273.859994024 42635457.37447087 10123833.540878551 10092892.77658316 41519208.25781598 20286309.019318216 42568377.56752208 15810629.700281046 48474822.30636882 38758642.054796115 43060720.164982684 23828093.578539252 30556033.15794789 40852032.88649749 41923485.5516053 60393993.17540094 44166501.92764427 69171017.92160946 15773681.425953 49883522.6210382 50837374.83200404 24804986.15865866 48187886.194073655 50717517.68174041 42981255.83986749 43088267.336430594 45827527.57323714 20950155.835271332 47019025.44783207 43259235.47275622 17436943.908156034 39886506.18221343 50505738.196228795 45341521.982544996 47856509.18714859 43887418.231035255 36005789.156217456 41890381.536398016 42779610.08724774 42499870.45274426 55773855.20319251 13882708.822085379 47791650.93841282 44424204.729639575 43051191.0245373 42272209.558159694 24154143.78067008 43307697.36062118 17415015.909539673 27588572.28257808 34374363.294573806 39987531.54310171 3002095.6409085817 45611992.45520411 46372925.83590169 46378216.65162424 55584683.04563082 41014497.29855679 46944597.89820259 37061532.56934221 40853561.38755762 43472717.83163594 8962095.09564935 50716340.84702523 35270955.41920272 33242132.00463513 16436637.279115366 60410002.352027155 41931277.20046543 6915967.6442970345 46805657.880382665 50811189.0331147 48045385.89273823 41104598.1435072 59299977.1352802 37229554.263751835 41387804.059388235 47740347.03307662 38703252.30824737 42002032.486765355 36669977.05928645 39814678.42764402 67302268.4237887 44516826.918863654 88686.24385660843 64426661.0937586 47507443.11812115 402