# vtk DataFile Version 2.0
Really cool data
ASCII
DATASET POLYDATA
POINTS 2689 float
10.0 25.0 0
9.749999999999998 2.5 0
15.25 2.5 0
15.0 12.5 0
20.0 12.5 0
19.75 2.5 0
25.25 2.5 0
25.0 20.0 0
12.8125 5.0 0
12.5 5.3125 0
12.1875 5.0 0
12.5 4.6875 0
22.8125 5.0 0
22.5 5.3125 0
22.1875 5.0 0
22.5 4.6875 0
12.8125 21.5 0
12.5 21.8125 0
12.1875 21.5 0
12.5 21.1875 0
22.8125 17.5 0
22.5 17.8125 0
22.1875 17.5 0
22.5 17.1875 0
12.5 15.5 0
20.0 15.5 0
20.0 14.5 0
12.5 14.5 0
9.995967741929068 24.63709677361624 0
9.99193548384352 24.27419354591668 0
9.987903225752747 23.91129031774724 0
9.983870967693909 23.54838709245178 0
9.979838709643776 23.1854838679398 0
9.975806451588815 22.82258064299319 0
9.971774193518987 22.45967741670884 0
9.967741935433088 22.0967741889779 0
9.963709677331826 21.73387095986437 0
9.959677419249761 21.37096773247854 0
9.955645161201263 21.00806450811359 0
9.951612903119845 20.64516128078604 0
9.94758064504518 20.28225805406609 0
9.943548386962053 19.9193548265848 0
9.93951612887461 19.55645159871496 0
9.935483870792845 19.19354837135627 0
9.93145161272193 18.83064514497369 0
9.927419354633525 18.46774191701725 0
9.92338709656502 18.10483869085204 0
9.91935483848279 17.74193546345097 0
9.915322580408823 17.37903223679417 0
9.911290322326463 17.01612900938176 0
9.907258064267786 16.65322578410088 0
9.903225806182238 16.29032255640144 0
9.899193548092457 15.92741932832128 0
9.89516129001441 15.56451610129687 0
9.89112903193036 15.20161287373247 0
9.887096773848848 14.83870964639635 0
9.88306451577868 14.47580642008116 0
9.879032257707456 14.11290319367111 0
9.874999999632388 13.7499999669152 0
9.87096774157541 13.38709674178694 0
9.866935483520326 13.02419351682927 0
9.862903225484896 12.66129029364055 0
9.858870967443991 12.29838706995923 0
9.854838709394688 11.93548384552203 0
9.85080645134599 11.57258062113923 0
9.84677419328547 11.2096773956924 0
9.842741935225352 10.84677417028196 0
9.838709677185804 10.48387094672252 0
9.834677419124317 10.12096772118856 0
9.830645161077069 9.758064496936328 0
9.82661290301319 9.39516127118734 0
9.82258064496042 9.032258046437814 0
9.818548386911868 8.669354822068383 0
9.814516128856654 8.30645159709885 0
9.810483870799494 7.943548371954425 0
9.806451612739686 7.580645146572026 0
9.802419354698465 7.217741922862086 0
9.798387096668439 6.85483870015975 0
9.794354838615694 6.491935475412687 0
9.790322580551589 6.129032249643185 0
9.786290322498939 5.766129024904508 0
9.78225806445883 5.4032258012946 0
9.778225806418291 5.040322577646533 0
9.774193548368817 4.677419353193986 0
9.770161290304422 4.314516127397968 0
9.766129032236005 3.951612901240819 0
9.762096774198463 3.588709677861742 0
9.758064516136995 3.225806452329888 0
9.75403225807409 2.862903226668307 0
10.11666666610577 2.5 0
10.48333333385953 2.5 0
10.85000000105818 2.5 0
11.21666666867316 2.5 0
11.58333333336224 2.5 0
11.95000000131839 2.5 0
12.31666666820478 2.5 0
12.68333333056934 2.5 0
13.0499999971377 2.5 0
13.41666666013254 2.5 0
13.78333332331241 2.5 0
14.14999998971309 2.5 0
14.51666665948202 2.5 0
14.88333332845008 2.499999999999999 0
15.24107142855263 2.857142857894746 0
15.23214285711795 3.214285715281784 0
15.22321428568154 3.571428572738167 0
15.21428571423432 3.928571430627341 0
15.20535714279942 4.285714288023047 0
15.19642857135995 4.642857145602022 0
15.18749999993289 5.000000002684433 0
15.17857142846358 5.357142861456524 0
15.16964285700679 5.714285719728339 0
15.16071428553705 6.071428578518076 0
15.15178571407274 6.428571437090492 0
15.14285714259704 6.785714296118296 0
15.13392857114501 7.142857154199406 0
15.12499999971972 7.500000011211233 0
15.11607142832301 7.857142867079478 0
15.1071428569088 8.21428572364799 0
15.09821428549156 8.571428580337546 0
15.0892857140937 8.928571436252073 0
15.08035714273443 9.285714290622575 0
15.07142857134667 9.642857146133258 0
15.06249999994795 10.000000002082 0
15.05357142854956 10.35714285801773 0
15.04464285713485 10.71428571460605 0
15.03571428570876 11.07142857164946 0
15.0267857143025 11.42857142790003 0
15.01785714286502 11.78571428539929 0
15.00892857142013 12.14285714319497 0
15.3571428591223 12.5 0
15.71428571719138 12.5 0
16.07142857423201 12.5 0
16.42857142974857 12.5 0
16.7857142846084 12.5 0
17.14285714112862 12.5 0
17.49999999772317 12.5 0
17.85714285297952 12.5 0
18.21428571083795 12.5 0
18.57142855939082 12.5 0
18.92857141386655 12.5 0
19.28571427430228 12.5 0
19.64285713574168 12.5 0
19.99107142854329 12.14285714173175 0
19.98214285710808 11.7857142843235 0
19.9732142856822 11.42857142728799 0
19.96428571423453 11.07142856938133 0
19.95535714282337 10.71428571293464 0
19.94642857136245 10.35714285449797 0
19.93749999989375 9.999999995749876 0
19.92857142839276 9.642857135710214 0
19.91964285692271 9.285714276908246 0
19.91071428546458 8.928571418583031 0
19.90178571404575 8.571428561829856 0
19.89285714258144 8.214285703257598 0
19.88392857110147 7.857142844058753 0
19.87499999962442 7.499999984976929 0
19.86607142823917 7.142857129566706 0
19.85714285687816 6.785714275126081 0
19.84821428547457 6.428571418982778 0
19.83928571407323 6.071428562929247 0
19.83035714264225 5.714285705690037 0
19.82142857123506 5.357142849402467 0
19.81249999981376 4.999999992550225 0
19.8035714284025 4.642857136099819 0
19.79464285702924 4.285714281169751 0
19.7857142856151 3.928571424604182 0
19.77678571422344 3.571428568937625 0
19.76785714281399 3.214285712559351 0
19.75892857141964 2.857142856785682 0
20.11666666646139 2.5 0
20.48333333599902 2.5 0
20.85000000037297 2.5 0
21.2166666666204 2.5 0
21.58333333661485 2.5 0
21.94999999805711 2.5 0
22.31666666291099 2.5 0
22.6833333246655 2.5 0
23.04999999031157 2.5 0
23.41666665336712 2.5 0
23.7833333158213 2.5 0
24.14999998189816 2.5 0
24.51666665379502 2.5 0
24.8833333260793 2.5 0
25.24479166666316 2.864583333578429 0
25.23958333332243 3.229166667430228 0
25.23437499998316 3.59375000117879 0
25.22916666664224 3.958333335042977 0
25.22395833329952 4.322916669033526 0
25.21874999995567 4.687500003103358 0
25.21354166662136 5.052083336505047 0
25.20833333328796 5.416666669842317 0
25.20312499994325 5.78125000397244 0
25.19791666660968 6.145833337322924 0
25.19270833326647 6.510416671347334 0
25.18749999992573 6.875000005198308 0
25.18229166657996 7.239583339402762 0
25.17708333322847 7.604166674006945 0
25.17187499988757 7.968750007869894 0
25.16666666654491 8.333333341856315 0
25.16145833320392 8.697916675725455 0
25.15624999986355 9.062500009551652 0
25.1510416665306 9.42708334285754 0
25.14583333317543 9.791666677719402 0
25.1406249998306 10.15625001185779 0
25.13541666647126 10.52083334701201 0
25.13020833313536 10.88541668052437 0
25.12499999979433 11.25000001439681 0
25.11979166647349 11.61458334685533 0
25.11458333315809 11.97916667893395 0
25.10937499982347 12.34375001235711 0
25.10416666650693 12.70833334451501 0
25.09895833318476 13.07291667706603 0
25.09374999985275 13.4375000103075 0
25.08854166652795 13.80208334304352 0
25.08333333324327 14.16666667297151 0
25.07812499994489 14.53125000385754 0
25.07291666664035 14.89583333517551 0
25.06770833336538 15.2604166644238 0
25.06250000006882 15.62499999518263 0
25.0572916667336 15.98958332864792 0
25.05208333341046 16.35416666126748 0
25.04687500010878 16.71874999238476 0
25.04166666678705 17.08333332490666 0
25.0364583334479 17.44791665864697 0
25.03125000011321 17.81249999207509 0
25.02604166678298 18.17708332519102 0
25.02083333345432 18.54166665819793 0
25.01562500008643 18.90624999395011 0
25.0104166667187 19.27083332969072 0
25.0052083333458 19.63541666579472 0
24.65909090697006 20.11363636434331 0
24.31818181387862 20.22727272870713 0
23.97727272112545 20.34090909295818 0
23.63636362933978 20.45454545688674 0
23.29545454074166 20.56818181975278 0
22.95454545175678 20.68181818274774 0
22.61363635870555 20.79545454709815 0
22.27272726938004 20.90909091020665 0
21.93181817642107 21.02272727452631 0
21.59090908415283 21.13636363861572 0
21.24999999070893 21.25000000309703 0
20.909090898365 21.36363636721167 0
20.5681818062032 21.4772727312656 0
20.22727271532826 21.59090909489058 0
19.88636362288735 21.70454545903755 0
19.54545453222531 21.81818182259157 0
19.20454544067146 21.93181818644285 0
18.86363634917439 22.0454545502752 0
18.52272726008306 22.15909091330565 0
18.18181816691119 22.27272727769627 0
17.84090907624678 22.38636364125107 0
17.49999998161302 22.500000006129 0
17.15909089129634 22.61363636956789 0
16.81818180107666 22.72727273297446 0
16.47727271035784 22.84090909654739 0
16.13636362113641 22.9545454596212 0
15.79545453028867 23.06818182323711 0
15.4545454400335 23.18181818665549 0
15.11363634812483 23.29545455062506 0
14.77272725866684 23.40909091377772 0
14.43181816866006 23.52272727711332 0
14.09090907805834 23.63636364064723 0
13.74999998745307 23.75000000418231 0
13.40909089754563 23.86363636748479 0
13.06818180839043 23.97727273053652 0
12.72727271853859 24.09090909382047 0
12.38636362812021 24.20454545729326 0
12.04545453791708 24.31818182069431 0
11.70454544876188 24.43181818374604 0
11.36363635991656 24.54545454669448 0
11.02272727049761 24.65909090983413 0
10.68181818161208 24.77272727279597 0
10.34090909059876 24.88636363646708 0
12.7209708686998 5.220970869541787 0
12.27902913024896 5.220970868490556 0
12.2790291313002 4.779029130458213 0
12.72097086975104 4.779029131509444 0
22.72097086840513 5.220970869836465 0
22.27902913044831 5.220970868689902 0
22.27902913159487 4.779029130163535 0
22.72097086955169 4.779029131310098 0
12.72097086902355 21.72097086921805 0
12.27902913070156 21.72097086894315 0
12.27902913097645 21.27902913078195 0
12.72097086929844 21.27902913105685 0
22.7209708691208 17.72097086912079 0
22.27902913087921 17.7209708691208 0
22.2790291308792 17.27902913087921 0
22.72097086912079 17.2790291308792 0
13.0357142863834 15.5 0
13.57142857334916 15.5 0
14.10714285783675 15.5 0
14.64285714470339 15.5 0
15.17857143070267 15.5 0
15.71428571720997 15.5 0
16.25000000702564 15.5 0
[...]
CELL_DATA 5068
SCALARS Von_Mises float 1
LOOKUP_TABLE default
32626350.44277467 32418865.831655234 31382297.409073245 28754401.154634755 31512302.20558155 31540753.79749279 6238746.196718812 24352803.478799257 30863185.033249076 31378048.046829786 32422781.684812445 9696744.964649044 14399676.120096233 40214219.46119711 31831376.012217417 33065318.3946957 21993796.735651366 20317538.145215258 28671347.505151447 15392240.427803615 15522274.6200807 82380088.19473384 31595981.91123146 41272420.482338876 29023657.61584139 31457919.028862264 11223264.836279178 28750007.291050483 21603470.84215046 37767496.31253777 20535039.97529499 27105986.831102345 30314911.916287564 22556833.21631057 28210021.282625966 31600914.438681476 25573737.853904072 4726966.973530743 8692169.483739255 27238638.931336693 30688049.475297507 28128123.77058718 31101056.928265672 23843028.73774375 50113937.323609 5703630.644876324 9259016.374044161 3187451.3129853206 43618227.48040351 81285500.28912334 62645303.49449898 5767217.535391908 4208887.4275624985 3872185.733683988 59214541.53033703 27239064.278674003 32614629.463731278 11774661.541518886 10434622.694174983 38366706.89744031 31574816.86577478 35648865.298412316 41775514.698291965 39907546.46110365 29691747.83665142 13461224.178192714 35854041.786555395 43282320.15368327 11886019.435828246 30267796.418437038 35931280.265395015 21446791.77824003 28266873.63058162 27643275.249016777 29243030.159288723 31768785.966505256 20659160.713165633 33107986.0339623 31881948.895194568 11341673.82886024 28696344.357516095 18042152.029679175 16729881.95564785 20600662.65122096 2722222.1335995696 30609190.54193646 30711416.35269591 17402318.475491747 138664084.18870598 29655787.22150188 28689765.193614714 9834160.659441154 8801287.750343397 20953146.225858815 43777744.83035011 7099851.1577365 7003930.616653735 29828277.561503176 11934162.311960572 36190255.548619926 15107811.795762487 30557497.45135052 5106239.200049069 12432742.215013424 17553094.675397668 11686367.965007117 12006740.22375578 5015117.731986577 19650613.194656614 19693332.719942927 2684005.285429789 33446480.44999809 5979848.451519096 3744840.914215303 93959776.10585444 6659876.49118779 6697123.0373876 11901039.740544591 25821987.677770324 62794211.680271186 42363856.752030924 18704053.75080734 13621387.979108838 31975207.342620287 6721379.224803289 6135351.7564835455 18717418.210579738 14075811.833057242 25110774.58242717 29367430.297596615 26239283.921709877 45779153.89682978 29569754.55990378 64098948.04000661 13989731.26726896 33126360.383974284 14164620.82989885 21957029.07318691 27539848.42843736 24078934.38641333 40176103.323680826 5649092.623449234 5265070.318392429 55935951.987678155 9806793.68805831 5340937.865244956 29451381.277466357 31497110.36828053 21849379.08836911 53875018.82761493 23747851.575588424 51383549.135034874 31256320.955760106 30137025.16589642 30102057.059278198 1775143.996657969 11593940.934913997 5689981.090125572 36105584.00636518 31066422.460685708 25949386.455424063 32120544.896678153 14711919.514181882 17180972.359589636 17175702.968925085 22240166.297736723 36266038.00585585 20158126.494299017 24891648.185386002 44777323.54864321 11860003.163857132 8946301.72574003 15723557.835038664 47603871.19794695 15797404.635825913 29974033.716925543 31205513.77608549 28381964.82821732 9371267.765811395 83124696.11837466 4494257.928269859 25984237.164723407 31651162.664355457 27121656.421405338 31475721.846808657 20207387.85213114 39102937.23673926 31276377.154008113 19520035.6866473 22708970.07620736 55942651.41428538 19095511.608446676 10440720.902123835 22673151.625761557 36428174.87633557 24993081.52244859 23660790.74515127 8853422.238170674 15763686.532302778 17203867.07526313 15811162.795668785 2369854.29904887 32520507.523247223 31798099.02618953 29193141.610454045 29803407.460198868 16505515.391690291 8807457.393284978 51954503.74349964 13654272.208072247 14078377.747018604 25857073.153329924 19895781.870258193 10363112.948750876 12587686.053895261 14900233.860776337 23121457.38514805 24551054.090795442 14805560.72161761 35862818.955002464 68593624.94715764 28150944.382779256 4485292.156639591 32557022.109194234 10023705.455794442 9953893.309004053 85860.59078135135 16235078.177025516 33770726.71877708 25906310.6348337 38503727.7077734 13624094.983058376 3914682.97466274 69284305.74334751 18932687.481439658 20228421.471497536 13658261.258839777 11343928.660977917 15041726.449939897 9935069.375313008 28893405.226266656 34342978.65543685 32532771.7531336 5975910.499056927 24045444.860876426 24711173.542769596 27976930.439075705 23467801.054347266 30960513.047773387 14167417.189416993 25176518.60438585 5057278.387772759 11097937.596285934 26441912.6237009 51755018.86303003 34160503.57995564 21832879.932957675 31435117.122490693 31296893.9285185 15398183.06630115 25779780.26505107 30061414.91354127 21243632.309063748 46063031.578151904 22958515.968302313 15789798.728851682 30872778.573916383 34168536.34100432 36754069.28066589 26084057.54959438 28313016.527232077 29611409.85021125 34037370.852380835 28319038.33300783 22949306.45027164 17741887.562771354 18834617.247930825 31208835.554729663 13174559.421290657 26859658.76717155 28350447.449488837 13121121.588928042 31025996.87667519 4730970.650925426 20839299.64437229 32834649.231845524 15302600.643387524 6666663.464057573 13685851.289120566 20641942.628058765 18419353.81961716 39052768.14596306 32567859.218321856 16897991.665552314 43672791.585670605 20188088.33745288 144164048.89782223 40002041.86825201 24794635.27228624 2132859.5530005964 5401897.221900571 32289516.083123747 32153873.5668442 29273918.83149807 20055566.716418516 63984679.52978243 2540543.1821809136 34186946.142140344 30603725.04898848 13915542.840903707 16071766.320369663 36688825.40032751 25163745.476889256 33851118.471458234 34555755.57772217 52460098.427479856 8917038.498151252 37206942.594648965 32207516.23015576 31630006.512129672 25438769.357794926 23073712.534384698 6832073.4151685815 1714938.298125007 23141826.126909725 27218459.89481426 32872015.289715357 10842968.30367404 27411903.682381906 19316571.119999293 32615289.395175412 3823638.157470552 10785095.52501821 18431240.67382378 20627051.608001977 37835819.837497406 38162507.430421546 40219615.22800916 25043667.745423235 8962041.350158084 42478306.979225144 24744325.518484145 5465712.815630233 51350762.38781251 4076230.906882988 16236394.567981312 23603797.693953328 9333291.654710678 22312662.983721487 42155663.016281344 5446570.777662161 12979376.171837756 6861439.112677468 38599013.28397214 16470405.434691908 18600835.446390003 35463225.00375715 11418257.661064846 32788463.434675325 30665602.54308475 11588664.77907539 30355757.57362505 6596779.923537361 27912049.074653044 9693744.106375298 25632820.176187165 7975837.368776697 27000362.0464993 65495325.0475972 51346696.094480805 44821525.30844805 29467868.15302554 15199456.996727008 30881349.520864595 27557529.58314913 30317913.210757226 33652860.263229184 10406191.281654837 30907372.014342275 21667187.72553331 41614084.292038396 17814069.333932288 40051810.03679193 13606992.658701403 20697840.07578878 5014619.102860343 48985139.26602595 14256557.565408183 32464117.33300146 13629310.306383561 94306394.78131463 15321886.648352774 21203398.60881447 10842041.869747883 25009971.796797212 27450650.245632194 21066808.950806085 41710767.041008234 39700311.46474162 33331832.649032306 37147703.67387415 31092325.23962751 33824096.079974204 1999127.760736548 28485410.389498092 25970951.87978788 23548731.803983502 36276566.92861683 29079894.34331763 8794934.079964647 9838545.576368403 24008942.720545545 46450703.60872719 11568663.342225572 21288237.77129697 26852250.28115476 24223577.468683183 22070076.566859365 33883712.572669715 37985776.78884079 83267437.95328394 32179229.41729525 31411647.789848603 22896202.79386618 29832706.572285574 19033204.34492049 29360465.61632597 66077692.479631595 33438349.14395274 33020504.126564737 45801901.93967253 56683400.50286518 27222968.270544846 24096327.224120155 1162673.3539169442 40209601.48363646 24476862.68732213 18327682.54203914 19586050.631188527 31077150.163144518 15906199.012088155 27308511.60765054 37074621.31175581 25610437.30441312 37201528.68846449 7579224.627231879 29263168.687955018 16954382.967835058 15224094.442951493 32350095.8354848 14762411.563001772 31669868.86936228 30010745.410131875 15649170.97263238 10587566.453764075 16112999.116650516 24754033.653321713 22926899.113363773 21034044.686403114 23003686.969866578 6534094.379954772 32236138.32730277 28354128.80120581 23395449.90045662 13384569.368222313 23058263.93202089 21013796.053051412 18289885.525810868 47683657.59736586 26096739.352459956 27062619.169368073 27450323.882861253 40169838.418451615 19768854.323217675 24876402.060030844 27860330.29418636 19454393.137584742 36561503.034522116 26277260.39858896 14449773.916680029 51081473.323415875 9480550.702382347 11678726.438765766 12679052.248201042 29499535.79814636 19107494.82527642 37161180.13584011 13228202.992436143 26693066.179609064 31739421.632046405 19846828.275809772 5677513.340010775 61703570.48118072 19581584.428721134 39032133.13401414 34009398.20398391 31788690.808285493 4188347.339446087 30699984.145705927 30107172.99959199 54321117.244100824 19837772.04033258 32030265.687110342 12409155.114007544 1669187.7857705452 22270516.216191966 8198185.2517853035 31590735.75977825 28116141.994429734 12351806.437383968 32816975.49486973 8207718.070105591 23195405.37914175 22582017.334353622 605595.2479674297 29159285.468252044 2756232.8262007707 15479037.156569354 30607003.337430004 2787305.600612677 21430724.022026278 24296185.003489953 3520294.2086823303 47627988.4604145 28997271.337226134 14215795.958640546 27502346.230994143 24456539.860401694 32089340.182259783 24236582.51303123 31473185.805672903 45856646.61388653 29022870.294714056 28088942.395611867 9730463.779292455 13969564.562841805 34125890.14783866 15739500.415228834 30046720.994134277 35762757.77000307 37547180.44362517 33151527.398004405 36928042.17800288 2706769.177985424 38162178.02210687 29504573.5878907 35774051.96477371 27781785.783318788 8815956.63477474 10074008.740103142 26937824.309070684 34080293.73620997 31623417.32547505 32432462.39627315 42230240.498864956 24420815.253339157 35442627.78348824 23386868.60626853 29247725.007447846 27329184.099673185 9857372.065564156 32374029.85745326 21672742.247803412 53800322.65467571 31120995.05428607 14380471.991816979 7236274.933300732 7222171.507846429 6031133.351565974 27435053.765561376 6039378.8078466635 19825516.213835187 7230851.039154784 13922686.431880156 10404272.408186993 19327929.567202274 28519349.63243926 10366120.353712529 24394110.24365806 13312213.466068182 31593950.80156599 15027049.707485337 27432113.631123997 8925041.253793444 25112040.422917526 80583953.48507307 14817163.338629192 23852885.595917962 35532696.08218361 4565753.470565856 10123457.272951651 7226212.633234155 35173905.24926585 24263783.255694322 8702960.887092791 31346479.089108102 43412822.97945147 8669091.091105804 94652621.6369897 8336852.155404865 14103568.85726618 8367620.735722518 19872501.78511364 12356421.137329545 25433564.863394752 29982646.146111943 31521453.146864872 21850095.700830918 42771982.1152936 36579180.384253584 25507017.658586197 29457004.315252453 29743024.482936867 29516966.221423607 2693886.953990738 16938001.75936795 27711740.201618727 53643882.291136295 38618053.66879992 19131530.56287047 11269703.581213772 1679100.0745769 4380959.692345266 355059.5028474744 17025152.62102143 26980424.694666237 29684110.259015635 3775485.1033964534 163649.54623969962 30028701.475206025 28504973.482582968 24819516.981535908 22472522.136439167 21455204.393941764 42524442.27534281 16390929.925688205 29667141.71573262 9846861.747408817 9846861.747408817 2703918.5215212028 62473394.51623784 13883129.32949984 28965187.01824979 17467439.926173475 30857743.52866105 18041960.068374414 48388395.56272257 12251599.017621 12426295.994811082 18595954.279450882 1782840.7893080844 30893404.53769201 39554764.55011502 22237537.194267437 15737286.733931357 28591653.22777286 42301606.5137088 30462257.729910422 7165015.695032838 36252783.41969371 32431321.548054263 35225098.92772608 30666359.445447363 21996548.917531036 40173181.542343825 29363027.74774506 21214663.419388387 16562877.482106484 46473683.79953305 31679020.772146337 51682864.510978065 26174581.199939333 59910122.659557074 33320792.662965577 14161401.194927339 64279916.93324881 36759063.52303301 31587791.155479092 10187011.34795218 31483325.014786433 11352015.06617126 28008256.851127036 10926910.744186858 9238423.603791729 11439636.023867752 28669642.17764514 22144383.555794083 29573091.963396233 28493586.486724637 16562140.630414823 4559905.110270075 14171280.151118211 10697090.174716812 31626647.071883373 50070288.72880224 25204426.264712922 1873556.6207596373 21406089.496927135 46085703.01480153 17207513.797318134 10056264.626362028 31380659.16634717 7055578.805774827 14621123.527338326 31586940.084941596 16337414.399647102 31665065.428603355 25935860.41571014 32296602.826656267 41939820.460397705 56458209.023993134 32873116.53136456 36252776.606794044 33055347.90449913 24828381.722811684 64545403.34500679 40677014.66077806 29828171.21641543 31449966.28990544 1870168.3535739824 41451733.224782206 31930723.157619186 50778423.3370746 30165089.460612368 29362727.53155854 23328635.23499387 29351809.59489784 34626952.349416755 10155872.060211178 22193649.990612898 43066732.23329654 15008901.196043395 1311340.0317343653 14637947.304101896 34660833.519811735 29283790.345211286 22265260.960011914 2256997.397347764 34525933.96915822 34106451.57682835 30227769.39061396 40025362.06859924 32954811.606807716 29477672.028931618 24188355.174155187 20751089.024031755 16995122.388275955 17513869.286707822 30715065.076614037 10979347.811572438 39976553.990211524 2283073.096609823 36471964.51589351 36033615.05318027 52603489.42927452 34438037.51079773 23252306.223658513 38504594.31780477 11933490.722077684 15754865.430220807 9548449.687461788 31694450.765083756 24067463.06640654 14130180.792810466 8697229.211976891 13923741.815096127 16650522.805311337 2313890.7593638846 27711653.962158214 12362370.533985749 30074993.167588763 16429788.974487133 31088238.74367007 12453880.629643323 28360162.46322331 8830732.872493872 38791470.46460822 24256578.77378147 29882178.972537015 29245038.478570946 28671801.003690563 20452339.661942154 29157773.729760338 27490408.06332814 2011105.00265715 23777335.766547013 31429158.4230136 60686450.377534784 24656998.165976875 5266932.358822783 4706866.434697804 7896992.906047101 37684070.67772518 13591783.617076896 5871656.039201048 31238126.718057353 14021346.619905066 35465870.61846658 28839478.316280246 14006939.32980554 13904363.194454616 2052036.6316957842 17232212.03001905 4691323.875621968 17406197.58983561 7725726.71840006 15630358.617565466 151283784.95089823 13164170.436223356 9723186.644535538 29735446.16739547 3514814.9681159686 19886054.64027852 9417183.93350884 31950672.928384524 12057968.578828348 19350839.081172273 37528407.99343278 28726610.729721922 18597470.488066863 23241551.937418558 37452594.40431923 27428497.91705759 21212562.65233211 16522156.619654508 73791995.60990876 34828839.07917365 29394046.020016752 24709949.213297803 26706132.455797415 73384632.78283432 5357043.485052293 34877298.57119746 36277661.79669731 20880461.096426584 34014191.83513015 39437397.026071504 10598307.206536982 41079141.08507672 6171851.4175040135 43661177.232122615 16970303.76619935 42828960.6355353 79185677.15292633 33555375.41778942 20762467.226487193 15377838.67857951 25868463.547017533 34425805.03030822 28515164.771862984 7448270.595717824 37862182.60517436 14057290.075216847 29987611.803464543 30008800.15508127 21342809.926797964 12197839.751619391 32379147.037391216 30028259.43908522 33558244.27583998 35636995.30275671 28000386.73772511 99863439.62203206 48479085.36994792 17120083.31871948 10027559.813086852 17201162.80028281 39011839.22956482 10175207.778437681 25956209.52243472 18859671.282167282 27347959.00770816 31454300.925269827 26693022.65458594 52374170.39810638 32240369.646928724 36542689.752774596 30517379.96566872 33138498.976583123 19086616.62988863 29763694.25198957 34041327.08923335 12732475.673826523 28911528.061717298 30017676.537194375 4414608.79442286 30009632.958230674 4396705.584293029 25326265.688111737 27363565.160347532 28082645.79533911 25411948.467720766 22829421.391142108 14196146.29998281 11841665.474091459 3653967.8965623127 35434227.00451409 79575456.22069342 11950113.767548453 24030430.676228326 22126173.910406638 11422132.868439563 20590806.52901599 30630406.624612607 11471038.977390463 29241819.79502122 33933709.90166792 35769170.69237707 37965156.59277493 29872884.51752453 3665391.377962091 31222659.186655484 31607537.17767334 55664332.56180992 23842309.03838593 51259270.10984835 14731274.007441256 29184050.817460027 24261906.049637906 30747609.005650267 35989933.16554992 31828375.38766336 23614808.825687718 42668961.28045127 51712330.9816186 77942252.24154165 4708468.691882282 30200165.64465508 9893234.844902057 29110998.474684272 29559074.66772842 28277874.923661023 31741718.99116134 46243686.95196515 72511728.88951878 22019433.049893744 22781027.69280219 86378545.99336733 31161816.95759445 30202486.040675644 27122885.120744813 30453491.409267418 9872843.25501493 11535337.56206969 36414784.04340881 1947180.5373037518 32978204.653447505 20052677.992979 72767234.052401 23162107.56157915 34551419.7721219 20748245.426358286 16688172.843433822 2889084.6496066554 93257058.58048509 35595238.25858895 29279975.32322504 34069713.284882136 33723055.72133018 53823053.1005374 16518249.583215479 27320196.419256024 31515638.093681086 34696367.56377553 13785633.485389844 12132927.776304223 17813667.55055463 13801013.950452838 7681889.282362509 30730563.626038697 13587669.92487925 26254509.50087026 19081654.964651525 15303990.683845595 19112388.790935986 33801729.85000974 33260998.366224587 21005187.866227284 8624934.751738708 10623987.372834366 19530311.949939463 22072960.00195433 28860024.875271745 39692473.82160213 35397864.85610141 30077017.039527047 13197910.018725237 2000810.9201024831 7855985.963164713 13879861.25188797 29380013.464800477 13573138.94369912 28212268.40484975 28137886.97870435 28028726.117372584 30046708.705426306 12841702.975592623 30265955.18609243 7175007.4892465165 29308217.466312274 12850176.103005694 33712137.75143231 32218103.9308139 947768.5358453426 32618226.19201119 32135484.176792428 29367324.371819828 33279878.324912112 34131345.00096111 29780303.354535237 40634678.528271295 19714715.80532306 24366044.491595652 26342119.38456111 26591188.867260654 1376115.3527786443 23342633.573314372 13473792.046615636 27844986.6251033 33670494.380381 51114927.018022984 12066384.783295924 22106198.07319488 62145933.170323774 16442045.948200598 11534516.157477366 33193690.517670542 32439386.443441045 34123286.09214865 42627791.86629198 15382449.358385256 31813251.733518206 15722569.401459662 38407265.03724282 13334308.189130334 16518243.148148824 1370698.5763154987 19232119.503240164 41349497.03774531 31514877.83543319 6276708.605102721 31992423.425840773 30417151.976972334 10235614.712302338 40151022.377368055 21070792.519325927 16734261.773647118 7836232.1189618185 23798603.162046947 15325362.281139078 41511425.84104431 25100263.131380238 22259370.21137421 18388375.471610248 29312687.127622105 1948235.538759789 29025983.130834565 23089242.35469601 31298087.3169648 20439636.410068586 76424842.70044996 28906489.40356676 20899086.83261361 21303792.94137542 25296671.52011384 29530264.35416808 35192047.49511974 1781417.5755069335 14122645.982727228 52904849.3298619 29929095.77227698 5321314.205299869 30753539.157715593 34133064.4955031 7139167.411076152 25709367.833909456 20440137.20219389 19443192.714371115 33850227.51056329 7