# vtk DataFile Version 2.0
Really cool data
ASCII
DATASET POLYDATA
POINTS 2337 float
0.07187500000000001 0.14 0
0.093125 0.14 0
0.105 0.12 0
0.093125 0.1 0
0.07187500000000001 0.1 0
0.08 0.085 0
0.1 0.085 0
0.12 0.105 0
0.1849999999999999 0.10703125 0
0.28 0.11 0
0.295 0.095 0
0.315 0.095 0
0.33 0.11 0
0.33 0.13 0
0.315 0.145 0
0.295 0.145 0
0.28 0.13 0
0.1849999999999999 0.13296875 0
0.12 0.135 0
0.1 0.155 0
0.08 0.155 0
0.32 0.12 0
0.305 0.135 0
0.29 0.12 0
0.305 0.105 0
0.07400000000348979 0.14 0
0.07612500000779271 0.14 0
0.07824999999894969 0.14 0
0.0803749999952566 0.14 0
0.08249999998390638 0.14 0
0.08462499994822933 0.14 0
0.08674999994006395 0.14 0
0.08887499993420249 0.14 0
0.09099999995734342 0.14 0
0.09420454546797791 0.1381818181591951 0
0.09528409093074393 0.1363636363271681 0
0.09636363639190157 0.13454545449785 0
0.09744318184341337 0.1327272726847775 0
0.09852272731240327 0.1309090908422682 0
0.09960227276056262 0.129090909034842 0
0.1006818182120926 0.1272727272217388 0
0.101761363665652 0.1254545454052176 0
0.102840909107117 0.1236363636090661 0
0.1039204545501074 0.1218181818103455 0
0.1039204545351962 0.118181818164541 0
0.1028409090709904 0.1163636363300891 0
0.1017613635938893 0.1145454544739189 0
0.1006818181248819 0.1127272726313801 0
0.0996022726730604 0.1109090908177859 0
0.09852272721320884 0.1090909089906675 0
0.09744318175503311 0.1072727271663716 0
0.09636363629795157 0.1054545453439184 0
0.09528409086031671 0.1036363635542176 0
0.09420454543107991 0.1018181817786609 0
0.09099999999569708 0.1 0
0.08887499996523776 0.1 0
0.08674999994887313 0.1 0
0.08462499993589656 0.1 0
0.08249999993105153 0.1 0
0.08037499993731956 0.09999999999999999 0
0.07824999995016058 0.09999999999999999 0
0.07612499993691299 0.1 0
0.07399999995578486 0.09999999999999999 0
0.07289062500457012 0.09812499999156286 0
0.0739062500150524 0.09624999997221094 0
0.07492187501767741 0.0943749999673648 0
0.07593750001518247 0.09249999997197084 0
0.07695312501915545 0.09062499996463608 0
0.07796875002345953 0.08874999995669013 0
0.07898437501595107 0.08687499997055191 0
0.08200000000315096 0.085 0
0.08400000000745388 0.08499999999999999 0
0.08599999998316099 0.085 0
0.08799999996401804 0.085 0
0.08999999995273557 0.085 0
0.09199999995121089 0.08500000000000002 0
0.09399999993491398 0.08499999999999999 0
0.09599999993196628 0.08499999999999999 0
0.09799999995619146 0.08500000000000002 0
0.1014285714352388 0.08642857143523879 0
0.1028571428514799 0.08785714285147984 0
0.1042857142734444 0.08928571427344442 0
0.1057142856932188 0.09071428569321878 0
0.1071428571212457 0.0921428571212457 0
0.1085714285484982 0.09357142854849816 0
0.1099999999822123 0.0949999999822123 0
0.1114285714037534 0.09642857140375334 0
0.1128571428189054 0.09785714281890537 0
0.1142857142250183 0.09928571422501833 0
0.1157142856555137 0.1007142856555137 0
0.1171428570890342 0.1021428570890342 0
0.1185714285384064 0.1035714285384064 0
0.1220967741945716 0.1050655241935804 0
0.1241935483896608 0.1051310483871769 0
0.1262903225842215 0.1051965725807569 0
0.1283870967914896 0.1052620967747341 0
0.1304838709523535 0.105327620967261 0
0.1325806451356187 0.1053931451604881 0
0.1346774193244425 0.1054586693538888 0
0.1367741935195587 0.1055241935474862 0
0.1388709677096723 0.1055897177409272 0
0.140967741904188 0.1056552419345059 0
0.1430645160818684 0.1057207661275584 0
0.1451612902720435 0.1057862903210014 0
0.1472580644834145 0.1058518145151067 0
0.1493548386909325 0.1059173387090916 0
0.1514516128937171 0.1059828629029287 0
0.1535483870840411 0.1060483870963763 0
0.1556451612840673 0.1061139112901271 0
0.1577419354622279 0.1061794354831946 0
0.1598387096478209 0.1062449596764944 0
0.1619354838311416 0.1063104838697232 0
0.1640322579966667 0.1063760080623959 0
0.1661290321782136 0.1064415322555692 0
0.1682258063682311 0.1065070564490072 0
0.1703225805506956 0.1065725806422093 0
0.1724193547380076 0.1066381048355627 0
0.1745161289385439 0.1067036290293295 0
0.1766129031440386 0.1067691532232512 0
0.1787096773606842 0.1068346774175214 0
0.180806451572158 0.10690020161163 0
0.1829032257837579 0.1069657258057425 0
0.1871111110949683 0.1070972222217178 0
0.1892222222073375 0.1071631944439793 0
0.1913333333069006 0.1072291666658407 0
0.1934444444244364 0.1072951388882637 0
0.1955555555409172 0.1073611111106537 0
0.1976666666573558 0.1074270833330424 0
0.1997777777758331 0.1074930555554948 0
0.2018888888758623 0.1075590277773707 0
0.2039999999790267 0.1076249999993446 0
0.2061111110874008 0.1076909722214813 0
0.2082222221875015 0.1077569444433594 0
0.2103333332991501 0.1078229166655984 0
0.2124444444082138 0.1078888888877567 0
0.214555555514163 0.1079548611098176 0
0.2166666666268244 0.1080208333320883 0
0.2187777777389668 0.1080868055543427 0
0.2208888888700059 0.1081527777771877 0
0.2229999999771461 0.1082187499992858 0
0.2251111110862768 0.1082847222214461 0
0.2272222221914409 0.1083506944434825 0
0.22933333332185 0.1084166666663078 0
0.2314444444493727 0.1084826388890429 0
0.233555555547392 0.108548611110856 0
0.2356666666578623 0.1086145833330582 0
0.2377777777790404 0.108680555555595 0
0.2398888888836342 0.1087465277776136 0
0.2419999999904152 0.1088124999997005 0
0.2441111110885862 0.1088784722215183 0
0.2462222221889084 0.1089444444434034 0
0.2483333332892328 0.1090104166652885 0
0.2504444443711533 0.1090763888865986 0
0.2525555554727744 0.1091423611085242 0
0.2546666665661229 0.1092083333301913 0
0.256777777669444 0.1092743055521701 0
0.258888888786205 0.1093402777745689 0
0.2609999998910937 0.1094062499965967 0
0.2631111109984147 0.1094722222187004 0
0.2652222221168434 0.1095381944411514 0
0.2673333332319658 0.1096041666634989 0
0.2694444443374155 0.1096701388855442 0
0.2715555554599857 0.1097361111081245 0
0.2736666666167846 0.1098020833317745 0
0.2757777777520244 0.1098680555547508 0
0.2778888888643243 0.1099340277770101 0
0.2815000000048408 0.1084999999951592 0
0.2829999999845247 0.1070000000154753 0
0.2844999999495719 0.1055000000504281 0
0.2859999999473485 0.1040000000526516 0
0.2874999999311151 0.102500000068885 0
0.2889999999081732 0.1010000000918268 0
0.2904999998895342 0.0995000001104658 0
0.2919999999010073 0.09800000009899273 0
0.2934999999328345 0.09650000006716551 0
0.2969999999888869 0.095 0
0.2989999999509399 0.095 0
0.3009999998509222 0.095 0
0.3029999998570208 0.095 0
0.304999999834998 0.095 0
0.3069999997763833 0.095 0
0.3089999997820753 0.09499999999999999 0
0.3109999997982706 0.09500000000000001 0
0.3129999998537683 0.09500000000000003 0
0.3164999999890818 0.09649999998908175 0
0.3179999999869472 0.09799999998694721 0
0.3194999999529219 0.0994999999529219 0
0.3209999999275956 0.1009999999275956 0
0.3224999999076311 0.102499999907631 0
0.3239999999035144 0.1039999999035145 0
0.3254999998508883 0.1054999998508883 0
0.3269999998504224 0.1069999998504224 0
0.3284999999146953 0.1084999999146953 0
0.33 0.1120000000092327 0
0.33 0.114000000011418 0
0.3300000000000001 0.116000000010283 0
0.33 0.1180000000050822 0
0.33 0.1200000000058445 0
0.33 0.1219999999961714 0
0.33 0.1239999999598676 0
0.33 0.1259999999371502 0
0.33 0.1279999999316106 0
0.3285000000000593 0.1314999999999407 0
0.3269999999852956 0.1330000000147045 0
0.3255000000061409 0.134499999993859 0
0.3239999999710653 0.1360000000289347 0
0.3224999999559119 0.1375000000440881 0
0.3209999999811112 0.1390000000188888 0
0.3194999999686343 0.1405000000313656 0
0.3179999999715397 0.1420000000284603 0
0.3164999999664321 0.1435000000335679 0
0.3130000000024226 0.145 0
0.3109999999822802 0.145 0
0.3089999999004059 0.145 0
0.3069999998641698 0.145 0
0.304999999832711 0.145 0
0.3029999998062666 0.145 0
0.3009999997901222 0.145 0
0.2989999998023704 0.145 0
0.2969999999079275 0.145 0
0.2935000000019651 0.1435000000019651 0
0.2919999999635098 0.1419999999635098 0
0.2904999999178378 0.1404999999178378 0
0.2889999998888693 0.1389999998888693 0
0.2874999998924269 0.1374999998924268 0
0.285999999900084 0.135999999900084 0
0.2844999998684388 0.1344999998684388 0
0.2829999998879884 0.1329999998879884 0
0.2814999999467386 0.1314999999467386 0
0.277888888865162 0.1300659722229637 0
0.2757777777488749 0.1301319444453477 0
0.2736666666262377 0.1301979166679301 0
0.2715555554911404 0.1302638888909019 0
0.2694444443641688 0.1303298611136197 0
0.2673333332364198 0.1303958333363619 0
0.2652222221036561 0.1304618055592607 0
0.2631111109809754 0.1305277777818445 0
0.2609999998747984 0.1305937500039125 0
0.2588888887403508 0.130659722226864 0
0.2567777776175223 0.1307256944494524 0
0.2546666664738158 0.1307916666726933 0
0.2525555553479824 0.1308576388953755 0
0.2504444442432063 0.1309236111173998 0
0.2483333331358039 0.1309895833395061 0
0.2462222220247446 0.1310555555617267 0
0.2441111109010006 0.1311215277843437 0
0.2419999997904759 0.1311875000065476 0
0.2398888886586995 0.1312534722294156 0
0.2377777775482717 0.1313194444516165 0
0.2356666664344699 0.1313854166739228 0
0.2335555553125034 0.1314513888964843 0
0.2314444441989065 0.1315173611187842 0
0.2293333330915751 0.1315833333408883 0
0.2272222219863942 0.1316493055629252 0
0.2251111108867915 0.1317152777847878 0
0.222999999784013 0.1317812500067496 0
0.2208888886835361 0.1318472222286395 0
0.2187777775847347 0.131913194450477 0
0.2166666664644777 0.1319791666729851 0
0.2145555553441905 0.132045138895494 0
0.2124444442264792 0.1321111111179225 0
0.2103333331272063 0.1321770833397748 0
0.208222222009487 0.1322430555622035 0
0.2061111109107374 0.1323090277840394 0
0.2039999998408325 0.132375000004974 0
0.2018888887389089 0.1324409722269091 0
0.1997777776369715 0.1325069444488446 0
0.1976666665462138 0.1325729166704308 0
0.1955555554520901 0.1326388888921222 0
0.1934444443625876 0.1327048611136691 0
0.1913333332572465 0.132770833335711 0
0.1892222221730091 0.1328368055570935 0
0.1871111110811715 0.1329027777787134 0
0.1829032257919895 0.1330342741940003 0
0.1808064516035068 0.1330997983873904 0
0.1787096774004645 0.1331653225812355 0
[...]
CELL_DATA 4298
SCALARS Von_Mises float 1
LOOKUP_TABLE default
269356.38200848893 416544425.1970602 413252464.679954 189737482.39456505 193350899.81873488 136001.98450296366 192420.65172341658 161245.97536100692 211627973.29498887 211596767.69934273 39919973.59202593 77996019.41606727 48521.49009170071 103335024.75752546 87050235.86841251 116827770.8904705 116816257.94252379 299375.3279297038 30469997.417472813 244179.0444038164 325686110.3936931 299518481.5246498 384342529.6519208 383844446.7706916 135478484.15043038 127486849.52269785 102376712.3605609 108689131.34921293 171757316.8671048 296655576.7823535 291171568.72877634 373889342.4050319 375291645.80552655 48052521.25381001 8109213.8435957385 231514.47721062417 296656906.67908216 247623971.4934523 247558640.75118947 70244.03308770966 221011.50775947003 168519.86217448136 161236.87515415865 371638679.3196804 370983047.12903666 6810340.766278757 26938774.766877603 21088347.564457595 77604488.82647495 77591399.89312458 5504521.865835271 250107214.30377787 271482992.19458777 45516424.58965405 12617723.212815259 97406255.13719468 270765492.22618175 270666933.77182573 61253663.81195252 110316330.44230622 110305657.09157404 51287021.347517684 95263424.21502447 95260589.24083658 214173116.1681386 214203724.7551876 275839212.5305173 275915505.11315674 206426362.63368022 133110692.5639878 173583442.45667458 135106529.5138931 135095545.00959265 177897453.20826685 177889228.89833042 185607266.43595204 185693916.61574206 339927368.89102614 335978676.5262556 19387528.755179252 53794570.9154214 67256147.59198536 201056287.92090127 201034237.1076655 129842161.86719027 135225808.26667634 48346406.273835525 54661943.333496265 54656715.267611966 201305325.07407755 201295586.8129856 396950117.54308933 320993335.042837 321121894.61286986 173384171.38074064 173368920.67565396 51449069.48776596 407761854.6773011 401398885.1595189 69357.70100959769 53670.87476100134 40217.80201333228 210599636.74410245 166911.99669078676 256765521.13874692 14423613.43491167 115233053.33142614 115224943.88792716 67441761.42571756 59846265.621962 280263394.1818885 199745.48295404355 308454973.662215 302565047.585949 642658284.9317632 632849486.8013549 50843987.48931022 88753097.05068512 88727759.75021495 279755821.05545175 49653963.59508505 103509399.1687467 109886118.01188162 48895475.873204105 9527546.663094893 27718485.69979879 27719794.657575525 79891981.95112337 72017365.59629224 84827641.38464901 77102464.06901704 151688774.9076385 27212344.645469576 27213811.394867893 64132418.058624774 171301048.61405024 278499.3040308803 209705817.18334392 296593697.3706308 438821675.2611096 439115894.4625989 336715336.35213876 338840841.01661015 47739373.27721025 26150108.20938893 26151569.6379133 16317768.708349094 160970905.7277445 70010137.68313983 219386627.65508094 219368878.9283397 480498200.51381135 481086838.5297281 340249.6038536035 1277635.5693447057 3735949.2576979105 165598363.50706875 165586877.0050178 19517758.824466877 8747014.756645199 439603944.0043691 438754692.8856589 21047653.83828072 14611645.919765823 16476487.67745682 23181998.53897048 20947.958364237904 26014.86836512109 252371319.90898526 260464398.4082335 584687977.5023552 580705288.9617957 219294229.73916295 219289124.07983822 108245507.5149976 79098367.03857814 343151468.15173364 331923178.7112227 240631820.14342442 70610869.19837424 122073330.16218872 41246887.43550889 228616446.4973025 95006166.28249611 95004430.96182789 1905664.0363006073 201078361.99618903 201083848.76755908 319917683.94417274 19510629.006140944 19509840.772118174 247232.4550143567 192551876.66211006 272895.2304753731 407198.3905750312 305481.30140391755 11649611.946396092 389661259.8403357 144422969.03220242 9906761.370912438 9608562.184622187 321580847.18521523 320685330.93898636 70260.56926490112 90653.85470972626 245492337.6673869 245493301.08473232 40249415.668701984 230370977.69373944 230380431.60017833 128460342.61773682 139851980.98635748 119081039.93358062 130201052.37585667 130167264.62667005 482931511.21542156 483290078.1176871 70984.92544287561 71471.39456172456 126791545.61066279 126791799.45535865 447758369.8565896 448484200.38294095 603130876.5983434 604725915.9527136 387421507.97801626 25038991.315873343 25047039.498350147 171244030.31774822 169457845.35584697 224317049.02873364 224219011.66493455 219250153.47628155 25814332.527965132 14507580.88005559 30720442.10454621 12645459.299781252 195607.63446024788 280433513.1506827 279784538.799274 1497735.7942562327 2119244.260607778 44811535.90034705 235933825.31197825 235916746.50258464 228928782.1013131 228910375.27135724 252570319.89351743 252553131.52102166 7791423.630998002 6799817.038924948 270749462.7478609 263006448.64307526 339823848.8277935 339153335.5206142 172468355.13607782 7620644.938830218 20747196.945103183 168364692.18529892 110357290.64515926 35404369.47412218 82187.9554581457 198329004.90655765 282922315.7212039 282909737.8540881 172643213.99106243 373128868.3206461 374315235.292726 65141.373521208276 75937.83130422374 4184227.171107761 117398.68897882351 371279046.6706515 371343992.89543194 148212454.58954278 148209130.38758832 85444468.6946107 40004685.1743023 421866.87500979454 3805753.0936506204 30141862.194626242 29667202.40005791 151463482.06366575 72081.18870177194 57892.180066276196 41603.28489969727 26673850.828403488 100324048.08280472 159672209.97421676 159682330.4111849 50666975.68973057 37502105.93978573 173260303.8704 173347163.99505192 126664053.81549294 316440740.4126076 313174854.9631121 376190664.10377496 374384433.8294085 157605285.40029216 14890875.50219437 149649344.5684296 224327.52930738052 100613274.7507853 8603912.903231446 164165402.0292355 184607.16062422024 297930792.56985384 271418719.82918197 184037.45674633788 36249432.30288789 36258683.19479894 368102.5739841876 107127.72673134624 405690.0556633853 329572.11818061356 190688.6975162236 5916420.704603561 33917160.48867253 1695634.3112562983 247227.11356271442 350088.82363751956 280720.09248485224 227359783.57351506 227380294.69632438 199027937.45836106 530930.6505441847 28502109.176063094 329936882.79385704 107466088.87711132 102600949.49230643 76779189.28929943 349276225.69395417 348224222.015899 11178278.358247565 11179256.599844553 12052642.475266408 23403859.616096333 220034885.4888471 220050972.60899565 14438891.840713266 9674309.878157733 9675936.242595881 243669035.9075104 107044489.18600185 107037407.31323192 218729.4362306449 170434.86813885692 131797.07511021916 58599602.94708704 8703886.272439959 254431041.11730853 254417148.49590832 375159877.2587614 372486249.60255367 20749831.402615543 20636440.988913108 37189899.122047655 37196572.85206607 19873.79484995125 34229.38024396947 17424.221845194115 50612152.87904369 55949734.848715976 549081233.0976642 542466363.8313935 87891681.47359796 29942183.877534427 30331980.976005714 107222719.64234397 220373.0663282204 76138.4209353739 422023110.63183916 267696529.42865902 262648595.88506642 349135224.16587424 13420813.708543649 11579188.70247778 210848409.7638895 209626248.65294263 160742015.5230755 160737187.52213347 27749812.706824046 27749719.78652504 326209120.0185218 248256.0720737939 396271595.64255923 326195.6580875956 128787909.55643319 9791119.744059408 881669.6881058863 45186419.99400736 45184272.13274416 342943476.9082448 28711704.750930987 28711073.975190908 121401508.30034803 118498833.58404908 363323.4803152943 189119801.96099794 147669252.9677449 261388629.02220726 258897533.90847066 291866395.37832516 187793.377216828 57318.34170328675 76362.61982387964 72645.60955176552 75523.35404487434 88060647.23535833 83709522.85010803 166424.5190072137 207282.80989456907 92752.52278255322 216346.39524088943 83535.94946336522 263719.9474924491 278964939.46858925 275427464.37237 118913874.00898299 233480.6891870663 146337.2644102801 179926.9550595141 197699306.8816606 64278.365062306184 63837.6668616693 293876095.3058991 2210208.272270206 113881277.30419137 25973780.402583838 25973047.398514595 211709948.1843293 298880562.5332844 351158201.0351461 298102394.7529275 351383752.8639702 168002791.5224249 121565987.0223536 142876.52924308 188946342.62494346 101510239.36642192 101466642.96194449 233116834.33365494 231400613.02607465 76533.66044883397 74806.54933126092 9759530.850351168 25984789.029701382 120856513.77607615 21593655.803656947 216303744.05697358 61611.742534245896 37999.11106431858 11072673.44799255 18953141.566607762 18466195.915254936 172959671.78667012 172944705.52970287 13583549.041673748 138519915.12176028 133747576.68989769 177479317.96055475 171872477.94075236 7017891.978465127 4961613.038532886 4960335.706848993 70775064.93685088 10566130.771019118 174600.08529973542 151746.2155935214 21409.955669128445 167862817.57505897 230574361.16302064 38011698.91396862 27848393.258511413 32583353.24780613 43062250.90304249 214823894.2417424 214817343.4047268 78038564.35450533 322682241.2321537 440664505.10538906 440396887.0362697 201212002.3897607 201447767.56885764 216920682.40204698 211919237.07128778 14356297.883047102 190526341.243524 27724957.752267584 27722939.944845825 416475.93050718063 48613113.355840854 48614754.3666163 80442774.27463435 80441787.66563706 287140388.00469494 282215755.16422206 76040526.01535408 23038225.23940774 1569799.1642455803 32809755.591298174 10955171.565540768 337288008.87836975 337274141.1765414 365708780.1936765 57201841.06349434 57199589.822213724 218736096.9745073 218718341.2225892 78376595.9025465 273766524.88776773 273749301.73988134 116301677.93189372 188236.21715632355 165805.1759341547 17916.29789124659 277136584.9621145 277123074.1030338 16254893.171003118 6440456.823368965 224577525.75726146 224543704.84558755 83905142.37632565 49007068.93482224 49012123.012850866 342140272.83753294 340926878.51335865 15681873.121699274 48402226.45946889 48402438.666169 6982486.266534845 6981808.231985358 143068361.68161875 72738406.09706627 12193607.022216618 8528540.657763034 37985244.29976185 11798019.354622168 3753246.9110586825 223000449.13745973 219535178.50105554 46369812.78763179 38080551.16962897 38087435.6563409 21168743.356755637 20052375.588878796 298564856.2303022 298553680.2164276 17274.585072817215 7213.693481631445 14467.586439740207 11986021.023936622 263661174.3655191 263644564.77792662 216821346.38948438 222212964.37208575 280813318.6239507 280797706.5522861 86161702.67181306 22336990.158893604 16195529.676947273 115867716.48853616 113957080.97207335 46464432.16054989 46470067.07894923 59214868.86165694 59209032.12271428 27006490.55241077 34804082.92453222 34809094.411945865 280760.6496869234 7126015.51834361 7124805.1774925 417308229.18188184 417832257.0384089 60734934.50927171 77848145.12986259 1555703.5567008287 12045282.809762154 54738078.513523936 54741561.04739268 221380.3320203434 172057.4019522567 138266.94628247118 408750739.4381998 5975214.315791034 13751900.339383174 115411478.40755986 39154533.58404292 34260132.09228785 159183586.53037453 20811707.374250297 26643653.42413324 48522966.868424095 48529155.595798366 199887466.10529366 194835004.08473238 120125168.21583465 120130080.07150961 348723239.3547685 274017541.96086425 26574602.232826848 364163679.6901318 362378507.8506267 4062229.705686911 29821.90889826558 24746.278962180488 91940214.50211701 434594250.198 549186102.2878852 553938842.580585 239374.48716784373 119701571.09580706 42488741.15764394 124510471.67787834 161499497.2059969 49748746.70221195 49753964.103830695 77728062.0468777 34479941.766265824 40885935.570142455 46188305.52897888 36220880.45128181 173089443.95409822 61123354.3744221 199912968.78763327 5616193.498611156 7559565.1188565055 103836696.89289178 5093095.197046578 253111538.8303409 253071793.2613922 99112709.96201962 99921366.68350321 39992142.810016125 287598938.6617218 10458273.575105451 42402936.514584735 2767625.9750715527 131528947.37104863 364643.75903096393 243675912.27651176 239184822.6603326 69838715.69495028 239666636.3959579 239700241.50373235 44695437.74267739 50029725.00699082 59850150.17129699 75617721.31823768 30195294.86454541 30194249.28776366 71970800.29197893 73526537.93134937 127484.6051283039 98460189.96713668 105486108.06179307 21684318.430164725 64563325.44639045 1297987.190906653 3403712.0970128467 10505581.407353552 10507298.901829086 23643751.726031587 54601752.21069727 1932225.5119760933 417229135.60669464 419258614.1611066 50682729.17889967 72010061.66635872 93834840.68229464 185841.50609374017 80890225.85205428 287317740.1544192 290962388.8501969 911710.2243973402 507434553.50250965 507547100.7217536 100422958.62594748 335644947.1223805 75063766.41545564 79366774.31368843 131026681.73807159 104988513.04378678 3647075.2880451526 84185488.0086842 46033762.909186535 46030985.90946417 957823.6395904609 417907477.9596987 156421598.28732133 135495.8012882377 550388492.6218723 555355847.2115983 52123.36108020258 54898.59189609266 1272229.5760726556 65479.60182813649 144760.6804373859 31153244.12411116 32140407.644451465 38622522.58845794 37484706.86900972 74525167.78299643 7826679.837254979 210437545.6132832 166776344.98081562 164122150.8175434 228578294.98191264 103225186.86383139 198360.0371737821 4124846.5333597814 364675663.861336 366150611.86478233 159929.44701911142 88125.0090534913 149525348.67242727 22105611.720379263 575016201.0489898 567921106.8509877 303065218.18756217 301618724.59889364 251762336.87936944 249012862.47109085 20091780.528982338 31687632.384853154 89495984.92026407 500156186.0970295 504668386.52925915 6713224.060928774 4033709.3661506413 25287682.677636907 100443891.72703527 169659777.07722062 59540959.71003008 46297304.25605348 3183225.1128268195 107459.1082186055 29433966.881335456 29436472.62384786 207697563.94438776 207724751.01255038 239040270.21623638 239019415.48068887 64338329.80623248 68390749.73887639 103502139.41288836 108259903.12702708 306851.59171270055 89332426.97060996 84623838.29781678 106450582.43708384 182162877.97399417 182146967.67939618 35829382.07461223 41159347.55544153 149921.99291008245 167793071.25198007 163908805.23934662 73432624.21677646 80388102.36739124 3778205.2328661312 237709641.9110318 237748283.2478311 104419576.48815577 261013.01653145402 252026.67773600837 449533915.00338686 448532925.7129377 25847437.204707384 47029807.90036704 596082.2596541207 174158.60637244707 154481.71590351666 120642.197983073 91016822.41464148 87378657.95685773 15491.323934175805 113824860.50647944 108940585.23681727 76113596.29701512 54311291.13404766 58410416.10516961 71390358.39092045 25769683.47346297 25766234.204611834 332258267.3847286 337400597.58069336 17363083.181563858 182654365.8195058 187873711.93300456 6974755.008018408 28478.410066595043 27849.918303847036 17772.932120047437 189643.95897993597 34411.327770639844 201435.32393036495 117912590.92102747 113619696.77423623 19851.70301595375 148008.00601859778 163228.26859915498 270673726.281879 132518933.59375563 132509375.88140735 27543667.499784287 54368083.67671982 59633586.49908967 157730980.29601592 206760333.854805 213061342.0043308 171438920.2556677 176334560.36624286 86096395.40442945 7917947.4768585265 171443204.3082759 280881196.1735302 277356293.77250594 77118949.57658575 65081543.20280085 332998033.4353423 221524.19987114408 54491090.70917054 54487184.46380847 71593741.00865911 71600249.99678811 101538091.10391738 86564510.19840516 170360204.53596473 170346704.77605015 5184370.72249853 150486885.07660535 150472294.51635617 7193851.568530587 35036314.84881506 35035385.774325274 34314.795990941966 37733.79360564694 12698385.05004083 25305682.425578307 25303678.320245765 112607452.0993225 107897401.46424335 11834057.715258073 26148.332326752792 160006.08233127173 177746.54147778943 6284269.085389225 61243473.734917544 10394001.817413557 141823.87874348313 464588.9452490288 18505204.426283956 18508112.34380385 203618309.1484473 288497384.4867478 286786519.57007486 12972926.138146395 185107966.9125481 179091538.0819438 239220288.45085555 239181396.79070166 65426664.09304369 6337199.0719126845 9737573.151707424 39120094.18708486 39126049.107985504 85331274.2357627 187606.98008188774 7969007.756218894 52464813.33980513 62866428.88658561 1886251.571857804 38488436.5534 38494604.950761184 253022064.42320174 251931561.0802215 153962785.08072978 9034446.510939667 89732017.86272508 89732873.82272486 86293.82423940394 66762004.78952166 71781159.25140984 301406255.45391303 296985325.97627616 26262277.644029167 26265240.4398695 23290876.836188044 23292680.458878662 164633662.1571542 218901646.5131048 219888.78869332068 238739.43770729916 52990552.15769147 58394497.70405904 61714623.40213609 118810.29388631514 10333436.225986868 10338268.754436329 403636980.39122164 400432076.9166499 8230908.015922053 347082615.55303925 83066182.18549836 50966547.558303215 55977088.07478937 56145860.15240803 56150318.26190641 22191940.563905187 22189507.269488342 12177321.353952209 1469052.849896089 59367745.092782274 87215216.82833229 87222849.45798033 67148189.31686385 70810410.85985777 335106.9584135232 55617108.47825959 55439149.438809805 510286090.7054034 513659249.28745943 85281869.92762409 85259707.36019625 134137648.6900366 95712105.07713507 295698.3287739229 53026835.61483588 41030565.51052085 41037326.52368325 18569799.908207107 28373.75042518159 44420.223513883015 58871.04905848063 51029.43005279913 22381425.601218548 105302470.89432882 110246279.43244661 53590561.285444066 145450283.5884993 145398700.84654555 152639057.4701766 984250.34008392 50939758.83375634 11562648.015141396 35167.836145865585 51840.8538287036 25854.135837247755 49546407.05223374 156646815.35322487 96885943.55773026 92206929.8639161 364735056.937775 426669867.2685777 357390809.2188407 427024588.412152 20383418.838448435 106211953.91864908 54094868.17705552 256861526.97073928 256843857.2644424 50728873.21225732 216143332.78731567 214198454.11213526 308838498.50971895 174586.12407948304 133860450.1439403 127317298.7620826 500865807.9721766 143189707.68017069 98491585.95238985 311075398.5770715 311055864.6802403 476299906.14938784 120711275.4354897 414105164.36796635 414692852.36746234 472634.296237151 73476596.27708748 73478486.08591379 88866498.00241478 95280451.84672059 50515783.47422479 23304.146066851274 8323.31723667476 3708.512968875514 7618251.9451190615 45679475.907111086 911715.9267483958 3748571.053055726 28928407.66635066 236495801.54321718 95324107.60586548 100475326.61582409 4165463.1980173565 203955.3403338731 66131421.07110576 71014028.16382974 72181089.6649372 67247393.75739588 267507424.75095987 267488326.17804515 71108800.76206133 4084482.4202595763 110980701.4796764 47961.144131899004 4184.945668129103 25647.784885391466 196638.7721484671 39023.145891217275 225231.83305290906 6546899.777239208 89859181.66366747 90028553.41727303 91695059.70522588 86719311.34715615 149753526.76820037 156319114.91933697 159606785.52957052 164052453.66291347 35815945.38916922 512205039.5150242 515698445.7233199 128491808.01707764 155623685.71511805 128847040.77584654 314130536.0844505 2459858.576886902 45948765.779601365 45945055.01374237 312443834.0478946 308837600.1829409 515068436.56653565 515246998.0643764 36751430.51668105 26974681.97600634 3065686.14598618 612851149.6676985 612844272.9830964 118369757.49318907 292169.6352799167 45508258.03216794 118765.52547874587 58660092.013169825 3013858.552576429 66434212.994480245 31462574.205323707 102775018.34968746 41182720.40427791 41189373.94670747 356735803.41433585 76662482.75738223 56164494.0767803 221187567.29621628 216302480.97766554 70803027.47231716 147677268.6613938 66097733.20366321 61662265.13861764 23256182.21136933 59355930.71371112 299243.50084977935 295569224.9513166 125154270.40185316 135932524.31947538 321293.286106895 31458.049189205925 62798.03609527824 12631729.210335024 226673709.27389768 221779635.00561318 114121077.43074088 125451.86142484985 143688.31498448053 77141.33254047504 254597.73051852328 247412.6175993976 165507.33001731412 223345805.81381357 218