# vtk DataFile Version 2.0
Really cool data
ASCII
DATASET POLYDATA
POINTS 2317 float
10.0 25.0 0
9.749999999999998 2.5 0
15.25 2.5 0
15.0 12.5 0
20.0 12.5 0
19.75 2.5 0
25.25 2.5 0
25.0 20.0 0
13.21875 5.0 0
12.5 5.71875 0
11.78125 5.0 0
12.5 4.28125 0
23.21875 5.0 0
22.5 5.71875 0
21.78125 5.0 0
22.5 4.28125 0
13.21875 21.5 0
12.5 22.21875 0
11.78125 21.5 0
12.5 20.78125 0
23.21875 17.5 0
22.5 18.21875 0
21.78125 17.5 0
22.5 16.78125 0
12.5 15.5 0
20.0 15.5 0
20.0 14.5 0
12.5 14.5 0
9.995967741929068 24.63709677361624 0
9.99193548384352 24.27419354591668 0
9.987903225752747 23.91129031774724 0
9.983870967693909 23.54838709245178 0
9.979838709643776 23.1854838679398 0
9.975806451588815 22.82258064299319 0
9.971774193518987 22.45967741670884 0
9.967741935433088 22.0967741889779 0
9.963709677331826 21.73387095986437 0
9.959677419249761 21.37096773247854 0
9.955645161201263 21.00806450811359 0
9.951612903119845 20.64516128078604 0
9.94758064504518 20.28225805406609 0
9.943548386962053 19.9193548265848 0
9.93951612887461 19.55645159871496 0
9.935483870792845 19.19354837135627 0
9.93145161272193 18.83064514497369 0
9.927419354633525 18.46774191701725 0
9.92338709656502 18.10483869085204 0
9.91935483848279 17.74193546345097 0
9.915322580408823 17.37903223679417 0
9.911290322326463 17.01612900938176 0
9.907258064267786 16.65322578410088 0
9.903225806182238 16.29032255640144 0
9.899193548092457 15.92741932832128 0
9.89516129001441 15.56451610129687 0
9.89112903193036 15.20161287373247 0
9.887096773848848 14.83870964639635 0
9.88306451577868 14.47580642008116 0
9.879032257707456 14.11290319367111 0
9.874999999632388 13.7499999669152 0
9.87096774157541 13.38709674178694 0
9.866935483520326 13.02419351682927 0
9.862903225484896 12.66129029364055 0
9.858870967443991 12.29838706995923 0
9.854838709394688 11.93548384552203 0
9.85080645134599 11.57258062113923 0
9.84677419328547 11.2096773956924 0
9.842741935225352 10.84677417028196 0
9.838709677185804 10.48387094672252 0
9.834677419124317 10.12096772118856 0
9.830645161077069 9.758064496936328 0
9.82661290301319 9.39516127118734 0
9.82258064496042 9.032258046437814 0
9.818548386911868 8.669354822068383 0
9.814516128856654 8.30645159709885 0
9.810483870799494 7.943548371954425 0
9.806451612739686 7.580645146572026 0
9.802419354698465 7.217741922862086 0
9.798387096668439 6.85483870015975 0
9.794354838615694 6.491935475412687 0
9.790322580551589 6.129032249643185 0
9.786290322498939 5.766129024904508 0
9.78225806445883 5.4032258012946 0
9.778225806418291 5.040322577646533 0
9.774193548368817 4.677419353193986 0
9.770161290304422 4.314516127397968 0
9.766129032236005 3.951612901240819 0
9.762096774198463 3.588709677861742 0
9.758064516136995 3.225806452329888 0
9.75403225807409 2.862903226668307 0
10.11666666610577 2.5 0
10.48333333385953 2.5 0
10.85000000105818 2.5 0
11.21666666867316 2.5 0
11.58333333336224 2.5 0
11.95000000131839 2.5 0
12.31666666820478 2.5 0
12.68333333056934 2.5 0
13.0499999971377 2.5 0
13.41666666013254 2.5 0
13.78333332331241 2.5 0
14.14999998971309 2.5 0
14.51666665948202 2.5 0
14.88333332845008 2.499999999999999 0
15.24107142855263 2.857142857894746 0
15.23214285711795 3.214285715281784 0
15.22321428568154 3.571428572738167 0
15.21428571423432 3.928571430627341 0
15.20535714279942 4.285714288023047 0
15.19642857135995 4.642857145602022 0
15.18749999993289 5.000000002684433 0
15.17857142846358 5.357142861456524 0
15.16964285700679 5.714285719728339 0
15.16071428553705 6.071428578518076 0
15.15178571407274 6.428571437090492 0
15.14285714259704 6.785714296118296 0
15.13392857114501 7.142857154199406 0
15.12499999971972 7.500000011211233 0
15.11607142832301 7.857142867079478 0
15.1071428569088 8.21428572364799 0
15.09821428549156 8.571428580337546 0
15.0892857140937 8.928571436252073 0
15.08035714273443 9.285714290622575 0
15.07142857134667 9.642857146133258 0
15.06249999994795 10.000000002082 0
15.05357142854956 10.35714285801773 0
15.04464285713485 10.71428571460605 0
15.03571428570876 11.07142857164946 0
15.0267857143025 11.42857142790003 0
15.01785714286502 11.78571428539929 0
15.00892857142013 12.14285714319497 0
15.3571428591223 12.5 0
15.71428571719138 12.5 0
16.07142857423201 12.5 0
16.42857142974857 12.5 0
16.7857142846084 12.5 0
17.14285714112862 12.5 0
17.49999999772317 12.5 0
17.85714285297952 12.5 0
18.21428571083795 12.5 0
18.57142855939082 12.5 0
18.92857141386655 12.5 0
19.28571427430228 12.5 0
19.64285713574168 12.5 0
19.99107142854329 12.14285714173175 0
19.98214285710808 11.7857142843235 0
19.9732142856822 11.42857142728799 0
19.96428571423453 11.07142856938133 0
19.95535714282337 10.71428571293464 0
19.94642857136245 10.35714285449797 0
19.93749999989375 9.999999995749876 0
19.92857142839276 9.642857135710214 0
19.91964285692271 9.285714276908246 0
19.91071428546458 8.928571418583031 0
19.90178571404575 8.571428561829856 0
19.89285714258144 8.214285703257598 0
19.88392857110147 7.857142844058753 0
19.87499999962442 7.499999984976929 0
19.86607142823917 7.142857129566706 0
19.85714285687816 6.785714275126081 0
19.84821428547457 6.428571418982778 0
19.83928571407323 6.071428562929247 0
19.83035714264225 5.714285705690037 0
19.82142857123506 5.357142849402467 0
19.81249999981376 4.999999992550225 0
19.8035714284025 4.642857136099819 0
19.79464285702924 4.285714281169751 0
19.7857142856151 3.928571424604182 0
19.77678571422344 3.571428568937625 0
19.76785714281399 3.214285712559351 0
19.75892857141964 2.857142856785682 0
20.11666666646139 2.5 0
20.48333333599902 2.5 0
20.85000000037297 2.5 0
21.2166666666204 2.5 0
21.58333333661485 2.5 0
21.94999999805711 2.5 0
22.31666666291099 2.5 0
22.6833333246655 2.5 0
23.04999999031157 2.5 0
23.41666665336712 2.5 0
23.7833333158213 2.5 0
24.14999998189816 2.5 0
24.51666665379502 2.5 0
24.8833333260793 2.5 0
25.24479166666316 2.864583333578429 0
25.23958333332243 3.229166667430228 0
25.23437499998316 3.59375000117879 0
25.22916666664224 3.958333335042977 0
25.22395833329952 4.322916669033526 0
25.21874999995567 4.687500003103358 0
25.21354166662136 5.052083336505047 0
25.20833333328796 5.416666669842317 0
25.20312499994325 5.78125000397244 0
25.19791666660968 6.145833337322924 0
25.19270833326647 6.510416671347334 0
25.18749999992573 6.875000005198308 0
25.18229166657996 7.239583339402762 0
25.17708333322847 7.604166674006945 0
25.17187499988757 7.968750007869894 0
25.16666666654491 8.333333341856315 0
25.16145833320392 8.697916675725455 0
25.15624999986355 9.062500009551652 0
25.1510416665306 9.42708334285754 0
25.14583333317543 9.791666677719402 0
25.1406249998306 10.15625001185779 0
25.13541666647126 10.52083334701201 0
25.13020833313536 10.88541668052437 0
25.12499999979433 11.25000001439681 0
25.11979166647349 11.61458334685533 0
25.11458333315809 11.97916667893395 0
25.10937499982347 12.34375001235711 0
25.10416666650693 12.70833334451501 0
25.09895833318476 13.07291667706603 0
25.09374999985275 13.4375000103075 0
25.08854166652795 13.80208334304352 0
25.08333333324327 14.16666667297151 0
25.07812499994489 14.53125000385754 0
25.07291666664035 14.89583333517551 0
25.06770833336538 15.2604166644238 0
25.06250000006882 15.62499999518263 0
25.0572916667336 15.98958332864792 0
25.05208333341046 16.35416666126748 0
25.04687500010878 16.71874999238476 0
25.04166666678705 17.08333332490666 0
25.0364583334479 17.44791665864697 0
25.03125000011321 17.81249999207509 0
25.02604166678298 18.17708332519102 0
25.02083333345432 18.54166665819793 0
25.01562500008643 18.90624999395011 0
25.0104166667187 19.27083332969072 0
25.0052083333458 19.63541666579472 0
24.65909090697006 20.11363636434331 0
24.31818181387862 20.22727272870713 0
23.97727272112545 20.34090909295818 0
23.63636362933978 20.45454545688674 0
23.29545454074166 20.56818181975278 0
22.95454545175678 20.68181818274774 0
22.61363635870555 20.79545454709815 0
22.27272726938004 20.90909091020665 0
21.93181817642107 21.02272727452631 0
21.59090908415283 21.13636363861572 0
21.24999999070893 21.25000000309703 0
20.909090898365 21.36363636721167 0
20.5681818062032 21.4772727312656 0
20.22727271532826 21.59090909489058 0
19.88636362288735 21.70454545903755 0
19.54545453222531 21.81818182259157 0
19.20454544067146 21.93181818644285 0
18.86363634917439 22.0454545502752 0
18.52272726008306 22.15909091330565 0
18.18181816691119 22.27272727769627 0
17.84090907624678 22.38636364125107 0
17.49999998161302 22.500000006129 0
17.15909089129634 22.61363636956789 0
16.81818180107666 22.72727273297446 0
16.47727271035784 22.84090909654739 0
16.13636362113641 22.9545454596212 0
15.79545453028867 23.06818182323711 0
15.4545454400335 23.18181818665549 0
15.11363634812483 23.29545455062506 0
14.77272725866684 23.40909091377772 0
14.43181816866006 23.52272727711332 0
14.09090907805834 23.63636364064723 0
13.74999998745307 23.75000000418231 0
13.40909089754563 23.86363636748479 0
13.06818180839043 23.97727273053652 0
12.72727271853859 24.09090909382047 0
12.38636362812021 24.20454545729326 0
12.04545453791708 24.31818182069431 0
11.70454544876188 24.43181818374604 0
11.36363635991656 24.54545454669448 0
11.02272727049761 24.65909090983413 0
10.68181818161208 24.77272727279597 0
10.34090909059876 24.88636363646708 0
13.12245575810983 5.359375001489979 0
12.85937500007252 5.622455758928196 0
12.14062499745613 5.622455757501361 0
11.87754424071326 5.359374999451498 0
11.87754424189017 4.640624998510021 0
12.14062499992748 4.377544241071804 0
12.85937500254387 4.377544242498639 0
13.12245575928674 4.640625000548502 0
23.12245575866386 5.359375000530365 0
22.85937499942928 5.622455759299569 0
22.14062499843458 5.622455758066268 0
21.87754423944776 5.35937499725959 0
21.87754424133614 4.640624999469635 0
22.14062500057072 4.377544240700431 0
22.85937500156542 4.377544241933732 0
23.12245576055224 4.64062500274041 0
13.12245575835722 21.85937500106149 0
12.8593749974183 22.12245576046061 0
12.14062499962912 22.12245575875594 0
11.87754424065191 21.85937499934525 0
[...]
CELL_DATA 4308
SCALARS Von_Mises float 1
LOOKUP_TABLE default
52291491.463698275 43871240.300423265 52596853.70451634 42001260.50923532 32038719.168609526 51585906.887157716 42497724.334796436 55068091.79491014 69092031.89745702 138509275.8405478 59240133.69505377 45586292.04040508 62841818.12755391 47546830.47741206 29386027.23393841 43125945.40882436 51303660.32144865 71332317.94800344 47359458.05627248 45132744.496048115 12369150.744858824 44923371.56322949 20425763.893117 24654669.823158324 20452577.816518858 47179356.50855254 47237151.932980716 35282910.839708775 37832624.2712235 45391953.64357394 40971266.47654725 57610218.60282274 46751284.11431103 49101494.481634445 3308323.0457058335 3294652.193884739 46348834.78783028 14550067.547151871 2361249.6946492326 19851384.651702482 6358824.608918632 10505839.287769949 25481146.408610407 21827391.901169255 36212875.120513685 8964880.416713318 25721924.83953256 3438215.317298374 34173143.408799164 70646449.31456938 43140285.48747113 52909291.30376359 278010.7088005149 46765266.22207555 42040881.11042289 3414570.469228388 39469720.825942 11184907.685800191 29506532.589439645 46757985.903991275 16575578.635591224 29556378.60813649 25724932.838410012 42568822.89046236 43189540.23658488 31194077.414178777 47163257.86870831 54605663.849841736 8725358.267817318 47282080.44074367 47010570.79552184 15510461.352958644 13878310.253961766 39884964.88360247 43846698.879935436 27533658.408717472 51686002.43553999 52337612.40432781 51774503.580029204 46862658.13230602 16632899.015304541 42512560.92880656 46051547.358284265 24835258.526487727 43742529.77465633 52693446.5396882 15773617.028239295 31382764.745511908 18636741.525307823 35091405.198246345 17982199.132981855 67094845.833583616 36204639.46225703 53648888.73949694 47201275.42365109 34787698.15711493 17621286.70451201 46650093.63983047 43162005.59494648 36110980.968468435 43753741.27498973 34443142.22434636 3946248.7190510137 24181703.009799503 46804182.48994348 22445025.928932257 25186022.10186087 2039315.8651574787 40625758.29698385 36591335.981584445 39431176.43985516 33787456.69471333 33375695.79407416 36471148.817238174 57751316.533192866 32111457.74743105 46662568.177730665 11729920.556035714 24659979.773012288 11617866.911295637 49069724.47630535 20403852.243350126 35947056.25624454 36189450.592671074 32996202.453999206 62675671.292474225 5843021.867341567 42173439.42321406 43931924.97005414 42564841.50257377 28732086.210405666 48886379.00298689 14607909.296128089 14649816.654404372 13533536.91574723 8599521.233326621 44831935.65398031 37824068.73573506 50998408.85010488 12442519.858292893 31002410.65808095 14278358.878935227 14537548.14625174 31562667.039376892 66111944.46549671 34940594.27965138 28818770.673693474 54650025.610718824 43660873.428172186 12193921.179263713 43240204.460973695 63751442.05534686 35407152.57207265 11628835.408788068 53968012.69320823 47990839.82704347 28761119.24041027 40417179.56870614 36122206.50236553 23227828.83850935 30381616.84667715 28571954.5204222 43823608.66883643 53517322.16978993 54944588.37766458 47702690.4617847 44331455.984851785 15932049.387791766 229141081.6564545 36571097.83078264 15921432.062421747 45840238.98205683 25762354.903952066 43756585.556723945 56081670.44893472 51067235.3701405 81685338.0191086 20641503.462387785 28802034.369509228 22000322.069954358 15641458.883502653 42328421.97056127 11308180.406957304 20728682.879867584 43841435.900768355 5283295.221921758 5239277.087324791 42706102.306017205 61575994.468291454 34054845.57731526 35391375.773094825 38863124.33003111 57460196.306483895 47795566.70812815 4191553.799461374 34081841.94109927 41165831.85549767 38829084.96109313 1941641.797927361 56780806.532306366 46274078.79727509 15887600.197678277 15913005.813866442 29294847.012071464 61234053.97098561 37081910.330316775 21536177.687716644 5632568.224782391 107038551.23237792 48890232.47092911 33087207.159936454 35656619.97051105 45543371.6638368 33819652.05972989 29520118.53472943 10100430.91633916 45045921.45918349 10488028.181857709 50325493.1757961 53148043.07566144 47186437.56131953 53766758.42656223 43156985.151481576 50616663.35437301 2866485.7066805176 14656003.66760686 81684760.79063971 62449124.79915911 107528198.3112235 54176984.37792253 45749285.64157765 37282449.55439317 4742508.670390716 42799269.72679259 28568796.429089487 5799112.116873362 35142666.83146283 7307634.789077498 10835233.457903078 36595949.07346274 38900896.09265418 4293929.290079263 17457743.751894705 1350669.9655396868 1357019.8546091276 61819562.539608926 73112872.0109954 46237549.86738227 30276334.93741071 36996504.05708135 43445417.901609086 6477286.5533140935 45430044.346119165 42412087.159228064 5086760.738837216 49643676.01377647 54373325.87313624 44828002.17975836 25496355.278417684 14015143.243220985 35405082.11606187 60662179.5785749 15486867.07644407 53222083.70105112 34236976.11133564 33742566.32651838 38135498.20830837 51777509.24942815 36967970.53101971 39219154.32422025 11221254.81511891 11174434.311080264 5296830.619235047 46632583.16770874 43383528.35665154 37284737.96789915 29697199.67959693 37169246.60470591 31717085.405616827 8530904.31608858 44813959.96395687 43912497.718477935 27833572.80661245 47816387.052208565 43451590.0266816 3567812.835099242 3569041.987156591 49153420.031618804 5263685.814178648 63409871.00274321 52667744.814866796 33151764.679278143 50608689.68121828 47911306.76811927 46735293.18698893 23496236.819408774 34658886.758575134 51240953.3446869 53430037.40190568 31842487.108656358 48154396.81103046 32098232.494487237 15424788.183464989 25121543.197355315 46171490.91847301 17354527.97166795 41221081.57525743 10548483.941021854 56574577.2766049 41701408.919167526 48991973.9413241 2112266.6639405703 10039740.34987498 56019431.42201016 45336977.71417289 46869650.5009282 51417577.05399638 46615554.43910055 50497379.58054108 185158970.4813036 4612663.468987707 27983863.37128816 46572808.540916674 68526823.3295912 23070298.824079506 41786888.647451565 45074508.15567001 37041948.01202573 46507626.999752 48262748.195366874 46129093.35424887 141700813.05534214 3512341.5868762787 78885134.28683428 12124452.217869347 62082251.64526519 25851182.91539637 13141213.046906654 15519050.964025216 44575937.61073554 67377063.94709797 50547381.9791709 40470546.25772296 50790279.68149938 38309296.73382369 52491110.26926874 3726447.124025432 47220325.60935185 6262225.770733566 52075664.22765024 40333832.08328549 93395619.53794122 50885589.5598267 31507508.012806293 32211776.64865976 24051031.499383107 20273479.408005115 34033252.385163516 31365379.662142765 51368913.14987038 77851515.80080011 42891129.06685368 28492509.71189954 48265564.49247595 49568184.978572726 62193339.642331295 45381974.88051753 27330794.81040269 37626232.86976622 74144800.2067189 45071395.159267195 49282695.09900786 36754126.28805011 35903751.50798071 44859711.013217464 47649627.71727511 57213826.36609675 43764630.22438774 47305858.8158423 31240869.926102925 16912269.59621858 45205982.977389924 47623680.08031153 44782156.32158747 24010800.796667058 2616658.4919180623 34056942.98787179 45049956.67778252 46567419.289065786 34135037.74012812 43520748.703846894 64008496.850639105 38449088.24629335 65124349.71171167 2229370.0502594165 6216105.106196654 43382096.45933392 47809178.06462665 14591145.553542903 45929873.65746584 23440984.56581118 44293171.67649365 12752631.841345547 31110844.546472136 13299966.925719587 9920827.4724061 46674251.47808153 42361971.80652462 5420216.628490076 70843962.14932558 65358187.50883227 48250185.881362185 46788376.9843182 58952096.472110905 64723952.878021784 46464143.72510467 65595558.447736494 36781176.533089146 2807455.6830029287 63205570.01367987 45846687.36202818 20690848.027661644 6236918.146519254 43773640.32154841 9733901.801418167 43788093.487064436 47052026.83423973 29344215.31628605 37307103.961688146 40859462.132653974 23216663.447079808 23922668.82580402 27324329.202904128 36334911.47584037 44638814.232520655 44644398.16085248 31415682.088195335 26756336.332215425 47514216.700705744 44495716.02505367 48083982.224090226 34646597.67760625 37801661.59105368 4127865.3945472776 13279487.813371422 15430313.03592778 49962777.04697984 45591855.098641045 15325698.517836029 41199375.012700275 47703869.63442398 33469797.70283953 42403538.71690634 40806414.32213256 47714369.29718503 31085230.634479705 40768514.002824545 32821160.281636972 35468332.35555501 43977059.48348701 19593182.579320654 32993588.891238 6205949.616210977 48495872.85868301 80363777.67636456 43804811.26786539 48517603.84486437 51209598.89133186 18814393.0259136 23439761.691561252 52775559.92352452 44601221.42220044 15053301.194960866 24563070.094795395 53383860.61423068 9430926.55907385 43022262.43687832 44206560.880612105 11415598.813907485 14513278.497259114 35045712.92407659 11347576.959663795 47039193.28913793 40118995.210442215 5371482.861096871 86850784.41612786 21717989.36454611 43529989.087141395 19073730.506399356 20958762.175587267 43478018.880366504 16867986.13115567 6453356.603664544 1821674.7436118454 34944470.44769495 2682903.4742980087 35600503.054848135 41182868.2712644 8857050.904693345 8832379.441089127 48383661.13720377 42832638.57927706 2286758.3873541923 47854945.75193566 14726029.113570187 98488129.11340217 14734813.087707441 44469069.03510383 51467094.997146286 3140298.0307095214 12954286.877001315 43768430.160497285 7842994.399500639 2521969.7319676303 55507582.04367148 38001210.70421856 9901722.460059233 6618470.554784263 48925360.07159188 851317.4339892576 16026094.799913483 33510757.147120617 59729822.95979706 45262832.47052754 26781615.20342778 22492571.223704096 44317762.94960247 15472634.109036634 8531117.6296078 39564996.842725694 44853985.4770983 24959127.957805976 43759696.78499402 14766832.818550246 31039161.141060207 44201593.320869945 48612494.436123565 69800031.3960938 54902923.5356583 6161280.16804622 6148789.038129327 21109354.829547003 5740252.114063619 34375108.23018379 30309493.96264686 2579406.073893536 2587832.728271204 25742223.36950517 8523253.537485892 8446897.296677649 15811119.257655725 15811119.257655725 47705517.26928903 50237476.24616862 40921270.52580856 88076268.30203122 4988582.268255019 5006378.320696114 44142510.747158624 47336784.50409085 17614989.5510844 9550565.657687932 17609871.168494936 45396239.24892683 45108464.01157191 41528013.825906314 46823992.49264251 47870530.673675604 31809059.780971505 40735493.48252369 17444089.57691755 38153457.59694403 9101411.363938957 9116395.124594025 41406709.42201099 47466434.89339588 50218970.01557242 51503692.95567665 9373922.92215393 13531593.472823024 50989602.16965342 8833849.220901622 44559481.96459241 41672910.60036603 46182477.55900443 41098468.94467501 44123869.45320361 29011461.99368098 42142919.264119126 41250934.0334393 57338377.2868459 68969057.51403771 18610787.932017107 47331123.47718746 38305319.491635956 26226774.16297873 44392747.98108891 70039036.65014993 4593166.533060983 49720561.598184004 48523603.432040855 36356791.57527054 18697723.009935606 44757248.44967319 25568229.058647595 44656332.25613919 53444640.33009358 45105332.44630769 80910608.11276196 50802906.87680257 21928920.09521057 36737336.825317726 1086500.7250693669 8431356.106924167 44090526.51743838 4602155.947601442 5006374.528207861 43863592.48648348 19232117.93123568 50276578.09066506 61605615.25082923 44310815.23575767 32465723.6342553 47004631.88991804 45385607.93925956 4928112.0462614335 8115292.849533893 42971347.73028962 49451335.891260095 44059996.03706168 40171956.50269594 102524394.82400143 4549342.508612059 4534603.386387309 39312674.84456827 43867640.85493004 17461798.5316064 27114011.637175463 44502715.34877813 14890800.129570022 37262008.828990676 64262478.08188954 52426069.026183784 57912881.57931489 25294336.248882465 47592220.92205991 9345899.818914821 43421969.50542175 27734760.84215321 25946300.02111477 47043023.825923555 50833739.1473432 44928910.31691026 29300387.611046936 18589139.114937294 53341034.81017072 26518730.423510443 32913083.438855086 48299444.369327195 45448593.360348254 29374390.65851783 45018999.707317464 61082790.14243352 45563577.31311227 42368312.388973705 41499351.20597363 61867067.59871079 93371402.86996962 42812811.48976843 38147168.987089604 23894620.850462932 43002795.8162794 45630444.18628188 29391637.886752706 61324761.37937403 44000690.13980677 25271858.84611155 46428141.61971541 52183585.222479865 74693278.84899335 11056929.427790167 46486558.78710811 68902908.82331719 45924261.485089056 36565363.86904461 44684567.907659315 18690449.310543373 47848885.59898082 45015737.10244176 20692391.799326375 67463988.266418 38546868.50658349 39855642.666258834 53952653.313008465 42906478.94385163 21655012.468333576 49123317.731194496 36777075.776054725 24779579.605321057 65541761.55184201 456828.52015002444 11283211.689018255 38809792.342422605 44569674.72922558 44101268.41847361 15184479.459702363 5164024.470069489 22312146.512132417 22175413.79150557 27050918.377776224 60335604.5253626 11924045.484384703 2179154.5415197555 43483247.953209184 33467867.49250158 52307813.54876479 39750311.40959526 47315133.85978178 40847537.02897045 32349298.610988498 18633409.367392693 37587481.25517965 20342118.105025426 47655075.326087706 55856936.480861284 54873798.74385352 32976194.29819203 30820589.856301885 46388592.067144476 27929184.45465939 43113253.34086915 55640021.4531716 13607690.464888673 44159790.41289988 35559674.7550658 42484073.60546858 87725465.02757694 57769819.930098295 24658354.428826276 44017821.36349434 42705114.23857286 10118015.554117734 10147063.101692561 37467590.77885743 15155760.31914369 7040997.8065499915 46424115.33964947 31838451.685437303 46096599.04622619 33378720.771813933 30909103.583232164 7614744.00022795 61512579.04069389 39219228.37495073 43512194.69571825 41551685.19762198 34812189.39356259 7719415.632130398 17731386.009775605 3178867.7220096565 22026721.74202794 52113309.74934862 60983923.01106556 37227684.91166984 20154904.07958786 15052024.32481619 42321942.20053832 48935019.665527195 42858618.42375302 33215355.440470546 32986475.578141015 33484136.2540368 1132608.3862747252 11074802.257953454 44398321.72176504 15461404.115995359 26998466.992697004 47836006.31193379 42465436.466387644 84287335.84013802 23671104.092703793 57491036.69659668 11639470.334177997 75326778.73795055 41770477.39579119 48285727.14896734 46534674.34655451 48070871.47559615 47858873.24429868 42424183.61255544 10430101.073676543 23258521.488578603 50043305.603463985 135737964.97626814 14062415.03024195 10434415.286386833 40210641.34105636 56475134.19388656 48653810.29715092 46183625.17430958 40247956.91099017 45137633.98382246 36990809.63274409 45709974.42317141 10766304.934008898 37234688.85013533 63993835.61779977 40292450.6831 104342748.49998301 48768749.90318339 12859089.277646111 42977093.75952488 17979909.50995024 51765554.385885686 32923764.819862682 18900520.7498297 43592943.73265124 7118389.0791018065 11353653.827024287 11315017.563044647 25944912.28726241 42134826.212873176 44914168.38118073 3755923.66359166 43086909.97665392 32065301.786228064 45805939.65516717 46429466.917084165 49762150.911099896 17479373.58143073 38482765.01826975 39180923.46115763 12593881.588706288 67449180.37957399 2801062.1141645843 45083880.79090766 31391999.978182554 14767053.975627612 57350547.91057369 37141679.831081174 18143618.826197587 12639791.097282503 26408594.82357917 30780532.954507105 49880973.6521841 34647993.20690714 31339754.533467166 23397949.032767795 47002221.50271571 46631909.10259843 81172347.0271016 55055349.09262011 48253603.790894136 2647228.779004387 45830635.822799526 46843519.379485615 3667974.630725739 52322916.50127111 42828541.04199639 61453409.75523421 20953249.126217138 45781856.43005024 39281874.122351825 6170244.624772407 47837737.92774036 28266734.429825604 45061932.25884879 40002792.443897754 95126520.65320578 37263278.26409627 46817584.424580894 28426382.00472685 34819706.120452695 53655616.206537545 2517741.6175886006 18839678.74044466 27407209.369425356 8659219.478456194 78623315.24765304 28057878.753417067 9144649.84141596 9086823.090420714 25275256.888193168 26438642.99979264 77244899.92202312 35221794.54273921 22974779.63645877 4819921.682189537 49876586.11216757 44650664.17578195 85466349.4297208 47986356.209999315 41210071.9300476 31117006.025261868 34099261.27872043 41584655.711137086 47025003.18623772 53574553.09452968 1554923.5769107987 47724571.120730154 43206657.08682336 46728485.08518331 67089779.938676566 44218078.10690714 28937516.400453754 29473124.434793454 30444015.2729661 60756641.93254692 4795890.288424602 25291329.36306822 44916255.15911602 41534298.356309436 37277116.40957026 68786875.40635289 52638961.940048024 78946391.60250291 50923474.47281527 28623690.064564172 45220928.314301305 60674444.53681758 50870411.49268514 23044222.86743114 9077773.906314958 76184064.43988702 9031376.968868177 6196041.706660996 46741571.00761456 51741136.17105524 45974033.30669493 31031483.7406344 57243968.33531625 47334015.18106585 6930940.440533929 31912228.669364758 43013104.779686 42318880.44860892 29210181.244216267 35711589.787999764 43395360.511272565 1237546.2262451616 46817470.21998935 35080878.82153528 40694968.37162992 32150463.299848784 47231511.05066163 46800842.5146393 32688523.657923702 12316656.167629534 49565071.87762821 33374477.895136148 47357591.01300967 40042787.22175493 64425651.74229557 47669235.97881006 22347212.053173415 44216065.84656649 43477637.311617404 50705845.07652595 66796218.39168724 38230523.256516546 36475777.89254946 16748006.270322066 39226132.80663698 54127238.961638056 56982427.81553527 1352182.073253422 18822954.933030576 47414477.19783589 51571627.30957856 31497014.00314139 37402933.33455112 34613722.45886064 50153151.32414981 47464964.76790109 29663697.870177913 43756983.0303608 15640386.72061137 25812278.700133946 23801678.82934569 31399778.541383617 7245264.197210331 7229795.023897264 36079257.89826205 32371260.416266084 37826974.24449448 2533064.0346871866 90847803.87533326 47184435.23781276 133991628.7424046 8540972.147857655 45641151.8261684 2542901.337522605 2554325.4733014214 6093716.660470139 6082313.492542477 76740894.33168517 32552967.12314646 56582587.69340609 42399164.38176225 55906677.95342576 43053771.6703781 33821417.167313725 6902320.919976982 31622984.01223998 17365288.86850098 47702859.03969524 30527753.733720686 39519290.88412095 30719032.105530895 45647056.34400879 48043673.82171502 29868864.128732402 2746103.0560076884 45614150.23425341 17765045.816813283 45182668.958750725 49644838.50494093 38673968.148083135 5342259.537691797 5337096.657428213 48270444.03277298 53004064.65644526 56402601.13586728 12560867.283886988 48162013.86202139 28562099.472355083 7731759.2665750645 38354285.75878501 43321335.64064247 24996923.768447604 118070156.15320182 63065483.06321355 44942895.598092735 27031862.46428566 6013295.134977591 26709835.82999188 13037169.043980649 29564361.761176515 46411007.66174797 38474179.629714 35196243.36303208 46055182.89261393 78344193.77833179 55826726.18263099 42928861.41614537 30332400.30581708 46864877.64357391 7961663.524338348 81378223.84308958 44547942.36518009 37722465.85446095 34287869.33383252 47303888.931186005 45958157.04817829 49809173.75980191 49771390.94563599 8282242.067456821 39712507.93653599 46158884.78232055 57767118.63654521 49377730.37531054 45025333.264035486 26700233.697517358 15410673.421960164 49267831.71708865 48221232.03352668 39217902.297230765 31722853.71780249 43285892.29511407 36508996.27485194 53064319.67103381 28648515.68924827 38495535.7175312 6977440.5026607765 34036395.620618835 49222729.12642595 46903721.58353359 45871136.050695606 48698130.99209054 34891961.06923864 5807564.092215988 42820626.920919195 35658739.83716408 42049559.12729766 54772468.678991795 39989709.12744622 41149598.38596244 43612760.5576706 43216526.35329941 288140348.7296