# vtk DataFile Version 2.0
Really cool data
ASCII
DATASET POLYDATA
POINTS 2795 float
10.0 25.0 0
9.499999999999998 2.5 0
15.5 2.5 0
15.0 12.5 0
20.0 12.5 0
19.5 2.5 0
25.5 2.5 0
25.0 20.0 0
12.8125 5.0 0
12.5 5.3125 0
12.1875 5.0 0
12.5 4.6875 0
22.8125 5.0 0
22.5 5.3125 0
22.1875 5.0 0
22.5 4.6875 0
12.8125 21.5 0
12.5 21.8125 0
12.1875 21.5 0
12.5 21.1875 0
22.8125 17.5 0
22.5 17.8125 0
22.1875 17.5 0
22.5 17.1875 0
12.5 15.5 0
20.0 15.5 0
20.0 14.5 0
12.5 14.5 0
9.991935483858025 24.63709677361116 0
9.983870967686876 24.27419354590941 0
9.975806451505594 23.91129031775169 0
9.967741935387979 23.54838709245913 0
9.959677419287308 23.18548386792893 0
9.951612903177157 22.82258064297202 0
9.943548387037561 22.45967741669023 0
9.935483870865918 22.09677418896629 0
9.927419354663494 21.73387095985724 0
9.919354838499428 21.37096773247424 0
9.911290322402236 21.00806450810057 0
9.903225806239442 20.64516128077486 0
9.895161290090327 20.28225805406479 0
9.88709677392396 19.91935482657819 0
9.879032257749005 19.55645159870528 0
9.87096774158539 19.19354837134259 0
9.862903225443695 18.8306451449664 0
9.854838709266936 18.46774191701208 0
9.846774193129884 18.10483869084486 0
9.8387096769655 17.74193546344752 0
9.830645160817648 17.3790322367941 0
9.822580644653016 17.01612900938582 0
9.814516128535823 16.65322578411198 0
9.80645161236424 16.29032255639083 0
9.798387096184427 15.92741932829917 0
9.790322580028553 15.56451610128487 0
9.782258063860747 15.20161287373363 0
9.774193547698067 14.83870964641301 0
9.766129031557885 14.47580642010487 0
9.758064515415136 14.11290319368108 0
9.749999999265055 13.74999996692745 0
9.741935483151023 13.38709674179607 0
9.733870967040986 13.02419351684439 0
9.725806450970376 12.66129029366696 0
9.717741934888643 12.29838706998896 0
9.709677418789838 11.93548384554277 0
9.701612902692275 11.57258062115251 0
9.6935483865711 11.20967739569949 0
9.685483870450787 10.84677417028545 0
9.677419354371613 10.48387094672266 0
9.669354838248523 10.12096772118364 0
9.66129032215358 9.75806449691109 0
9.653225806025599 9.39516127115204 0
9.645161289919614 9.032258046382696 0
9.63709677382252 8.669354822013439 0
9.629032257712137 8.306451597046282 0
9.620967741597934 7.943548371907037 0
9.612903225478219 7.58064514651981 0
9.604838709395764 7.217741922809518 0
9.596774193335289 6.854838700088075 0
9.588709677229938 6.491935475347274 0
9.580645161101724 6.129032249577598 0
9.572580644996847 5.766129024858337 0
9.564516128916669 5.403225801250091 0
9.556451612836 5.040322577620052 0
9.548387096737235 4.677419353175575 0
9.540322580608505 4.314516127382788 0
9.532258064471684 3.951612901225835 0
9.524193548396726 3.588709677852687 0
9.516129032273984 3.225806452329359 0
9.508064516148213 2.862903226669649 0
9.852941176575179 2.5 0
10.20588235384425 2.5 0
10.55882353096536 2.5 0
10.91176470721401 2.5 0
11.2647058842994 2.5 0
11.61764706100214 2.5 0
11.97058823810794 2.5 0
12.3235294170403 2.5 0
12.67647059214862 2.5 0
13.02941176563702 2.5 0
13.38235294061013 2.5 0
13.73529411351178 2.5 0
14.08823528775529 2.5 0
14.44117646397333 2.5 0
14.79411764123219 2.5 0
15.14705882094263 2.5 0
15.48214285710404 2.857142857919064 0
15.46428571423325 3.214285715335077 0
15.44642857135935 3.571428572812889 0
15.42857142846433 3.928571430713412 0
15.41071428559489 4.285714288102234 0
15.3928571427184 4.642857145631958 0
15.37499999986416 5.000000002716725 0
15.35714285692995 5.357142861400871 0
15.33928571401367 5.714285719726578 0
15.32142857106964 6.07142857860725 0
15.30357142814068 6.428571437186336 0
15.28571428519924 6.785714296015096 0
15.26785714229736 7.142857154052814 0
15.24999999944757 7.500000011048588 0
15.23214285665211 7.857142866957921 0
15.21428571381986 8.214285723602668 0
15.19642857098651 8.571428580269666 0
15.17857142818586 8.928571436282821 0
15.16071428546017 9.285714290796712 0
15.14285714268139 9.642857146372322 0
15.12499999988752 10.00000000224952 0
15.10714285709138 10.35714285817244 0
15.08928571426198 10.71428571476034 0
15.07142857140775 11.0714285718451 0
15.05357142859945 11.4285714280109 0
15.03571428572961 11.78571428540776 0
15.01785714284225 12.14285714315502 0
15.3571428591223 12.5 0
15.71428571719138 12.5 0
16.07142857423201 12.5 0
16.42857142974857 12.5 0
16.7857142846084 12.5 0
17.14285714112862 12.5 0
17.49999999772317 12.5 0
17.85714285297952 12.5 0
18.21428571083795 12.5 0
18.57142855939082 12.5 0
18.92857141386655 12.5 0
19.28571427430228 12.5 0
19.64285713574168 12.5 0
19.98214285709066 12.14285714181319 0
19.96428571422755 11.7857142845509 0
19.9464285713915 11.42857142782999 0
19.92857142850372 11.07142857007454 0
19.91071428566385 10.71428571327699 0
19.89285714274722 10.35714285494433 0
19.87499999981069 9.999999996213674 0
19.85714285679789 9.642857135957803 0
19.83928571385784 9.2857142771567 0
19.82142857094275 8.92857141885494 0
19.80357142811986 8.571428562397289 0
19.78571428518957 8.214285703791473 0
19.76785714222912 7.85714284458249 0
19.74999999927616 7.499999985523064 0
19.73214285649986 7.142857129997356 0
19.71428571378 6.785714275600116 0
19.69642857096893 6.42857141937854 0
19.67857142816632 6.071428563326299 0
19.66071428530542 5.714285706108507 0
19.64285714248335 5.357142849666927 0
19.62499999965938 4.999999993187642 0
19.60714285683545 4.642857136708982 0
19.58928571409201 4.285714281840209 0
19.57142857126215 3.928571425242887 0
19.55357142848666 3.571428569733251 0
19.53571428567042 3.214285713408467 0
19.51785714289288 2.857142857857421 0
19.85294117629201 2.5 0
20.20588235487999 2.5 0
20.55882352693214 2.5 0
20.91176470067818 2.5 0
21.26470587509772 2.5 0
21.61764704895601 2.5 0
21.97058822759501 2.5 0
22.32352940747382 2.5 0
22.67647058455666 2.5 0
23.02941176067775 2.5 0
23.38235293441871 2.5 0
23.73529410473613 2.5 0
24.08823527892097 2.5 0
24.44117645565941 2.5 0
24.79411763635966 2.5 0
25.14705881820279 2.5 0
25.48958333332585 2.864583333595161 0
25.47916666664597 3.229166667390891 0
25.46874999996687 3.593750001159383 0
25.45833333328636 3.958333334977398 0
25.447916666602 4.322916668929952 0
25.43749999991316 4.687500003039327 0
25.42708333324472 5.052083336434745 0
25.4166666665751 5.416666669871431 0
25.4062499998852 5.78125000401795 0
25.39583333321691 6.145833337408416 0
25.38541666653144 6.510416671399764 0
25.37499999984903 6.875000005283809 0
25.36458333316022 7.239583339392362 0
25.35416666645721 7.604166673997792 0
25.34374999977512 7.968750007870696 0
25.33333333308926 8.333333341876074 0
25.32291666640567 8.697916675801387 0
25.31249999972474 9.062500009634261 0
25.30208333305578 9.42708334304784 0
25.29166666633597 9.791666678240944 0
25.281249999644 10.1562500124601 0
25.27083333292552 10.52083334760698 0
25.26041666625816 10.88541668096443 0
25.24999999957175 11.25000001498879 0
25.23958333293401 11.61458334730956 0
25.22916666630316 11.97916667938932 0
25.21874999963477 12.34375001278308 0
25.20833333300986 12.70833334465483 0
25.19791666636482 13.07291667723147 0
25.18749999970019 13.43750001049318 0
25.17708333305312 13.8020833431408 0
25.16666666648339 14.16666667308115 0
25.15624999988681 14.53125000396162 0
25.14583333327724 14.89583333529646 0
25.13541666672773 15.26041666452946 0
25.12500000013395 15.62499999531171 0
25.11458333346292 15.9895833287975 0
25.10416666681642 16.35416666142532 0
25.09375000019333 16.71874999323352 0
25.08333333356111 17.08333332536115 0
25.07291666688319 17.44791665908837 0
25.06250000021687 17.8124999924095 0
25.05208333355612 18.17708332553584 0
25.04166666690528 18.54166665831552 0
25.03125000016995 18.90624999405174 0
25.0208333334352 19.27083332976814 0
25.01041666669018 19.63541666584358 0
24.65909090697006 20.11363636434331 0
24.31818181387862 20.22727272870713 0
23.97727272112545 20.34090909295818 0
23.63636362933978 20.45454545688674 0
23.29545454074166 20.56818181975278 0
22.95454545175678 20.68181818274774 0
22.61363635870555 20.79545454709815 0
22.27272726938004 20.90909091020665 0
21.93181817642107 21.02272727452631 0
21.59090908415283 21.13636363861572 0
21.24999999070893 21.25000000309703 0
20.909090898365 21.36363636721167 0
20.5681818062032 21.4772727312656 0
20.22727271532826 21.59090909489058 0
19.88636362288735 21.70454545903755 0
19.54545453222531 21.81818182259157 0
19.20454544067146 21.93181818644285 0
18.86363634917439 22.0454545502752 0
18.52272726008306 22.15909091330565 0
18.18181816691119 22.27272727769627 0
17.84090907624678 22.38636364125107 0
17.49999998161302 22.500000006129 0
17.15909089129634 22.61363636956789 0
16.81818180107666 22.72727273297446 0
16.47727271035784 22.84090909654739 0
16.13636362113641 22.9545454596212 0
15.79545453028867 23.06818182323711 0
15.4545454400335 23.18181818665549 0
15.11363634812483 23.29545455062506 0
14.77272725866684 23.40909091377772 0
14.43181816866006 23.52272727711332 0
14.09090907805834 23.63636364064723 0
13.74999998745307 23.75000000418231 0
13.40909089754563 23.86363636748479 0
13.06818180839043 23.97727273053652 0
12.72727271853859 24.09090909382047 0
12.38636362812021 24.20454545729326 0
12.04545453791708 24.31818182069431 0
11.70454544876188 24.43181818374604 0
11.36363635991656 24.54545454669448 0
11.02272727049761 24.65909090983413 0
10.68181818161208 24.77272727279597 0
10.34090909059876 24.88636363646708 0
12.7209708686998 5.220970869541787 0
12.27902913024896 5.220970868490556 0
12.2790291313002 4.779029130458213 0
12.72097086975104 4.779029131509444 0
22.72097086840513 5.220970869836465 0
22.27902913044831 5.220970868689902 0
22.27902913159487 4.779029130163535 0
22.72097086955169 4.779029131310098 0
12.72097086902355 21.72097086921805 0
12.27902913070156 21.72097086894315 0
12.27902913097645 21.27902913078195 0
12.72097086929844 21.27902913105685 0
22.7209708691208 17.72097086912079 0
22.27902913087921 17.7209708691208 0
22.2790291308792 17.27902913087921 0
22.72097086912079 17.2790291308792 0
13.0357142863834 15.5 0
13.57142857334916 15.5 0
14.10714285783675 15.5 0
14.64285714470339 15.5 0
[...]
CELL_DATA 5276
SCALARS Von_Mises float 1
LOOKUP_TABLE default
12048548.25832696 34824795.85083505 5708988.9575751675 31668818.987463865 24208077.1749971 47762243.09552488 6706422.960080381 30383541.611883774 14495030.907569498 40342225.89178853 6264949.262223309 27679206.760152478 13698800.47898296 31308229.349165134 32383990.320309244 33361721.365002837 31068988.613853794 30966652.92717609 31137530.740487453 21440355.768487994 22138092.224389493 30589969.279462382 27968710.151307683 1881469.8383857985 35572369.61058156 2335892.2861013347 27215276.66934177 18852493.465350904 28386525.637355242 7904042.097222768 4988872.202094799 30653192.071616977 35561123.335968025 37493549.85592745 30275805.616625674 39007923.90669462 26591719.311683286 31044456.615354773 30851505.20591107 30770468.346766263 68031826.43747121 23817533.032463312 43729447.268385254 33815647.918698974 11084176.717082554 8885151.678136984 36499158.07265935 52853971.04738851 14564610.806032944 34206825.525035724 3901168.320893698 36444019.13024013 35439739.69072968 29311510.68723182 35897618.83759456 44866799.80152855 13535919.132242348 35774708.90647613 18862103.44118978 8231976.521191225 42001541.510197625 29802429.355140377 17334403.77386261 37628595.87000044 14593287.505461141 30828594.672881752 10041475.443156172 30582533.180111445 30277133.5364415 2596159.5249566566 27591940.794669833 50235993.38748138 12835461.732415987 20807507.32796122 18249917.677073848 75492829.91555247 7742632.798509657 21363667.461927935 37500880.247071736 34279194.80628172 36702510.31409677 36865532.37293912 6204417.589149408 17640980.634737507 16987257.80584779 23062372.660508495 28557891.750880137 9870044.408146579 8908358.43811421 26766991.587271344 41933571.0562869 24404176.157388467 14115894.036651509 15277538.042427404 16154573.842459232 12942338.55284595 4116085.281920234 5720547.845583205 14636102.323549813 52676384.2800052 24972765.93725713 30929020.978173498 12021169.315956146 37117026.94360918 11826564.249592215 82363531.56886579 31534058.20653876 33552109.887866113 28550469.125897545 1508856.5920308966 13939578.028946921 41967897.992084265 33268411.040323276 13667607.28180138 27664511.990488768 2727655.952263865 13198170.993242702 5622570.2395047005 40289506.04969498 33150547.04106221 19585574.079340495 29597190.032625463 29569079.738632664 20707776.175325893 19919774.30363002 4168041.3902343144 22050147.126285117 1182049.437258604 17705807.076408956 33226421.8188483 35028001.623083346 18658070.05083364 2447286.56045192 7515122.153356098 31960437.378252827 25227566.080661546 8704665.63362366 11692401.063543951 37966352.85746274 46394387.94406012 4673041.108769978 14923521.819734495 36380288.857765876 41345954.487660035 2029129.7152005327 24009912.486451417 16100735.673383221 32624537.11758313 16989496.73699357 35959157.13054114 27239656.580942035 17731273.15229389 28900462.157505125 27459811.59213003 18105647.96397382 7107688.252996548 22139107.15021339 38356232.38049362 10218602.264027001 31219992.102066647 37402786.07746406 78742.75216843917 8281490.29347232 30395062.029543377 30464524.17897058 15381667.954234742 17210855.887484625 31382020.40959291 37265226.77613322 9314204.835833533 19517552.679476712 22936606.169415515 21347269.744115204 32591446.478989154 38418126.063705295 25682842.615425948 33732282.88807087 27199588.77187369 34162839.058349945 10421941.161224961 726520.0352313092 14970164.961324675 24945581.71932261 14869067.284768216 3265359.550041867 36033645.58281951 30852118.055144858 11313424.521572309 28275900.279931728 6309720.643893106 18674742.466458805 66316328.873324566 23556897.796906948 24889598.00184934 8407584.773476562 27904113.519226298 26791507.313561577 1958610.8728318883 13251198.212657807 14850375.308927888 33939920.40226083 35568116.375325516 31531490.076389637 27073781.86208632 33351078.488552324 31105566.634688754 17025539.562661327 15875504.231558453 37910805.60729966 9997318.884634392 50149343.32004612 9065367.862796893 11259899.103029368 7726772.975303675 29892055.464634407 6847645.878686333 15066912.555627612 33319150.455782074 19781877.397302557 5167482.280357716 29184981.887716588 14134625.895143883 30590274.732641965 13157275.773655096 12017854.319588277 51824785.20543005 28051194.65207376 24001863.637491964 31717299.305929977 12729518.70675163 20834696.328367624 30971812.4051106 8636334.541987022 50597652.13195446 17285196.363532744 31502693.405341662 28859446.8116327 29088549.68551404 30536601.369867835 45083014.42584613 25502727.529271953 26513852.888957035 39678076.83495749 42921408.62545747 26074447.820482265 16156420.154236013 16458385.766978966 29246662.741789162 14274645.649340158 36616216.37046256 27610457.462427348 8266365.587348875 36573954.22343922 43498677.98813309 30726941.12375743 28528815.303844888 24204996.639848467 9797682.441059258 5760732.187172145 18177466.546267282 8782443.956695985 6685007.730320009 4896572.563240133 11980928.4526828 5798731.4235737985 32685725.667031318 25320160.02716949 13611646.881776972 34630461.691173024 43105688.12544726 26802025.133513987 27968991.5187508 24471707.54585383 31693736.929257367 69941739.82587929 24890867.40274463 27417112.362959117 14039708.994322456 5482862.600889502 13845576.342953144 27168654.89182606 34883074.12413822 13688459.8090365 17199825.446686566 28110293.131846625 17478096.094504047 19934313.198130853 32177922.885437798 878086.7603067622 19858069.51845483 25500964.257067934 11606530.339133779 21611004.521282747 64790609.82216256 15959044.64220545 14648055.14867065 31955095.47124261 35052079.726087436 26091915.07591128 20101937.902785875 4966202.556975241 11125195.895404067 22009928.232016522 26987096.733304538 27208629.48660588 16855349.34178467 31363431.997344475 15367173.886026276 32045909.30035854 23823868.870545518 26212325.589276962 26233299.04225417 30054129.52466447 24364093.831714272 3855931.8833374116 26254385.216709666 30866556.308813464 37057114.16873102 22719439.125701968 22902952.647379953 28624174.270517554 13566571.710140163 28249143.451330647 21921147.19411146 27705525.536956124 48192892.19229083 25422768.49106118 17546070.09594156 23726359.712075423 2230533.691282748 9323804.65418213 53996521.84309032 13105726.991022088 16960478.316956963 31945475.821501236 48748012.521370605 28928750.142846387 16388222.028880555 27996814.514919695 8611796.594768291 18734069.218387675 5685732.449044715 17446321.207038056 33169638.648320574 16467309.596675735 34495687.997311234 1669049.1215298746 5676988.082984568 27999904.48729806 27861677.93430987 34535183.96851774 31931788.352612503 17698107.77620527 4499453.317046673 27867822.50745849 10267597.195908543 8486140.69481314 3757828.9728122037 32264076.284809526 27830313.770667177 25799392.956262942 7005493.353823438 27676912.167988826 24493265.39385555 17482368.263166644 15070173.098660925 22004796.022890825 27010183.117924258 36445702.17793651 32595872.210423823 26246922.908094436 18020542.162066035 150265.821309798 29789624.4692959 22310585.69447541 2293024.1875661593 10516935.079176236 11664157.470761852 28395802.21155801 23060644.988264766 27928964.16872998 11385028.46084571 53603690.38385337 30946012.905137632 14022121.289207377 20834846.138420325 6625000.2063008845 39180216.66101655 28999787.910020016 54926337.988343425 25294237.77471053 22219650.637956455 8686985.28615028 11516851.464601088 18816876.661967065 27285071.477570508 2636400.8903689263 30281413.336226292 52286908.83425424 27508230.38251732 48956334.44073194 29721120.476614807 14422869.431331703 28418489.70834708 29913373.029860016 27282684.063801855 13127021.986928064 31517700.864526253 21161801.85078564 13061979.487659775 2483047.7011521733 3957314.4766932763 19285660.511561733 14200367.87541219 25821753.422497395 28626311.285118725 27804824.2398113 149126340.36706737 6751561.898563403 9824075.574665368 29050616.65804303 16091432.69312537 25121656.735755593 9578460.782102317 28490640.806080334 17512919.323985245 11337227.866550371 91539328.40416466 27664021.336921405 23245537.827881683 14015243.712821752 38226759.794231504 20675103.18559751 19635437.25598086 25323477.85597535 36193399.15457243 12889008.334842796 13667403.960267883 26391301.256127235 7858380.46074998 26777049.66779746 18337431.46664592 24263195.3731111 27679808.73213527 22969991.548444565 27573493.095581353 25827604.85602888 91412229.05004759 44294376.441330135 27466843.245861035 36525921.79989911 28670440.72645164 9279527.635495013 22786048.54869541 23629016.600363515 25003045.826311093 29691686.34589152 29404377.328818176 21641130.235518385 41777782.3123369 37034046.33065329 27699723.58352977 30162030.86424802 23227463.576373167 12057713.049673595 1740938.9960104441 10619087.89926564 23233461.338065825 25705337.73156757 163260.99067210383 26639407.066483233 51942922.173813574 23078640.02434451 28971598.63729049 30449878.86800338 33786102.96215969 18577010.6064112 69930776.07819092 15027583.838067805 10787970.108272161 29499018.72006756 16724385.882847028 19398846.029970232 9269611.536904074 17524437.228151742 18448055.3662585 33302922.185897302 30388696.132030617 7070414.623386006 50336774.013444334 9692150.774658972 27583598.79265242 28163785.5541392 19567902.899152942 30478515.983034454 40331801.721598014 31503559.865781814 5640824.141846537 28047158.622210648 24265825.24785149 6877369.397564244 14729914.869878221 27770221.542014826 33644488.288808085 29921057.270846166 51302291.305649295 32725111.125871237 18187196.5420514 11783230.028792387 2823512.8780564675 27111832.315030515 30094571.212710388 13373221.681856466 29916675.281483635 5960803.463322735 20000616.65797819 64392066.17855201 8952780.976458326 29303271.72138734 31222617.549447004 11821146.659250569 4670604.708757846 13100240.104593467 25567629.730228428 4098688.152275687 3519728.533589179 12091905.572653819 2385347.082661035 31155510.584534086 31107691.397324454 20001153.189004302 25723806.344418123 34532152.746848345 7950762.723360269 19013333.73677257 10845567.13483658 16068693.030326882 27566434.74557274 27483989.698551964 29508145.400949817 7010560.120844297 13703073.548802221 36424648.9499884 12733413.019236095 12873553.095458651 28196468.05977407 319108.53441058047 12343626.334033744 15629966.205295429 48506592.018095255 6942923.2452372685 30535897.86449365 5453551.109572269 21969307.282519717 30474014.854461525 30929809.749482915 8317575.593498107 20861906.529149346 21278394.748250835 27135469.80544164 27359432.396567706 18195587.8434402 15507461.724710342 31427696.69277848 612608.655525487 26998324.865627028 21353202.917707406 31279954.640593864 31371925.9342782 21502618.382244747 12173795.314326286 41600357.830508105 34239015.77452774 30803875.474262502 15598229.139350133 31072166.753216263 12617954.945198415 20867746.63191574 30094362.430732653 87468436.33715887 29017297.123582143 46159340.6022948 1482931.7604499378 11947636.336508237 21069441.36624483 39586320.44850875 676677.9516956139 29894160.29769349 21801342.029904053 22844617.50630446 29527871.016970478 8709234.705509942 70891987.70353925 10470604.840252466 14975788.038043944 17940222.035983197 6479455.098259085 15945576.018633407 41658136.179144494 48630495.15123898 30658924.612807915 16826519.65021876 16866981.46768861 28599665.925289635 21701940.385682333 21131251.30460025 30162172.28140188 24333006.509377327 29697339.756028138 35282920.14304207 41449689.459077716 47236413.01736992 31950964.96308719 81814059.66318212 44814285.72473491 27390468.95561095 5956204.621366893 29635142.697284374 15197496.91516609 21615983.740454398 30773331.869539447 20590459.40914261 29276524.577342495 4099136.2405080125 53529443.49342536 24517237.51086885 7228714.65057366 9730145.418633446 24450873.97586714 27552236.088742618 70001286.73803721 30663895.999030866 19325187.044339392 24304359.93210313 30468721.40544261 30663644.516219225 41291340.330777116 24308180.805677038 31312666.555186063 13323794.913022514 15041107.477385735 16283326.276893936 9007667.183165599 28012909.314261027 31998269.731595043 7415989.779691265 1992748.638259012 35704252.318003535 10890282.29236106 9255293.033906145 28685050.721111648 30893917.552200068 21547021.704486888 11148563.91181636 27576849.139159046 8495428.830842972 22542373.111771412 34706001.508320846 5985279.859275762 8612850.403057486 22859915.175689083 11713137.583784932 67414662.14472908 16173023.518386139 44699653.87710136 25248873.61308692 32303334.871747606 23305077.363777954 16028300.461657424 24151306.12869599 46747614.011042744 36720427.19821242 25646536.08603574 1486673.3613439205 21181432.88182633 31858787.357412457 26448359.673246376 29610582.25087075 26199329.701021858 31398059.024660774 28605154.46986546 47222139.19182005 10521984.56779776 24486394.195402175 11364708.927529467 15446201.060928738 32262205.300044797 28625609.567481447 24936396.430687252 29005725.869746044 30876844.357227195 11469883.776889438 9807421.241772732 9807421.241772732 70225616.32759921 7077854.826940836 26010529.067603488 5209331.385948701 17094796.020560272 30987079.446594346 29913757.73631478 10104252.367631555 5457955.882320919 26535363.46945778 77855896.07442293 29282535.227389086 64195725.12431937 14062026.062500324 22902858.771941744 16035682.946544789 7170270.220076794 3387571.895197715 28986154.216276303 21855224.44793427 22143720.893592224 23038960.76265727 29122518.980503153 16426687.732143452 46608655.24898521 13233763.822064124 29707324.79841489 26452159.743973937 13476640.691465326 148819.84684818413 12424121.424188241 29132656.381638646 12870133.159498334 29611467.82310612 21712155.3970537 13274146.373282613 26576634.941547237 28065507.644095495 11025835.875294225 29513082.576712854 25608690.958217125 16328996.527106937 25380811.9564229 27128437.730795834 80024556.7506992 9905396.252689185 37069300.57393364 21164123.068653814 20729685.89241667 5372740.250491832 37591132.04861937 41952319.65877203 26329470.185757123 20520239.15701028 46253988.04998445 18938513.17572215 913514.4964100228 34946912.28905739 4240458.526217838 9736843.526024152 746030.3301182783 11781404.089448316 47621538.50293419 32846459.986726552 22481006.689229026 44987280.92122019 38187137.183273554 15055883.034753436 32622921.24335124 18610878.20287715 12791837.238961846 21352442.23347332 2892161.9438317684 35107590.375934534 33765631.38976189 23512189.68564805 23147294.71168893 29804992.54219541 33220949.31661214 43476939.873349324 50954413.76785251 1662592.362633398 16484351.382437065 34405352.13115606 43240155.70218295 31035947.85363737 29483059.47704065 24278379.21201129 42276978.975649364 24005223.290976845 527480.2086586648 36856805.84855424 4349126.578861901 25599446.989155576 10273323.968504706 20885716.415396962 7785608.981457601 28247818.29699694 39566501.495148554 29550339.454811558 22369371.25741845 2491501.29174116 31784996.90533055 29768702.311047856 5888642.631480619 2422842.822516561 12854491.491626928 32341850.701935016 24191713.376181103 25011772.62488573 9407935.498666279 34182229.80029643 32777967.99503018 14396422.398130324 58766510.04935629 29765368.702591438 29464515.027486112 18665644.75835288 22921980.29751488 61291712.58883513 27250316.046890028 30763626.06636865 33647084.80139108 32197566.312979586 2634012.59432053 19943155.293465257 40089720.351129025 18634236.800342973 5135873.247508426 11479807.803599142 27482936.994205877 14280938.11854266 27984834.748984832 19124882.69914297 22397057.46441915 17099148.67184268 28435539.203852218 42456728.88470766 41868121.84479588 34623619.03275746 7086850.489123651 12176541.068247806 15813639.734275147 8974842.064292863 26884465.899644095 43357354.71065332 1137591.8009579736 60473060.356011026 38767604.87251413 14210511.097319417 23200511.59610342 24135593.526729427 16771784.783592582 7696912.615706511 7285944.6868 20970273.751039073 29623226.761302613 21442701.0051626 25698170.270696316 37739532.078089125 18560684.61643534 19310349.9192511 47449076.329597026 78198168.80724868 19839853.957636546 31480906.187373765 40181712.006535664 7346019.5118860705 33319820.960072443 24309459.825770866 28421533.840599637 20346093.57695981 24771717.6131699 9018883.63274977 41952858.60711271 5345078.006315622 13001209.645329464 15498007.537243601 11875800.503740475 10212845.553076087 31847510.328386642 49684779.14563008 39565767.85649157 6147788.151377107 28560193.884661593 29028947.88577947 99852152.55790672 41425456.181846224 14775251.092397997 41450454.61419767 8172329.9790616315 28674454.977870353 28696246.259297512 11355469.279402766 25947710.267180618 30062149.733954515 27835605.290931102 62700410.88968782 12170306.221737362 47586707.996253304 35775251.4215759 30833303.478727415 22462097.690466084 24797171.537580885 13263587.966039196 26714303.855426945 3493647.161359697 8440263.77795439 22291769.934412993 29749517.058768656 5493299.288791951 4986101.533710972 21800570.757150657 4478472.7411348475 26364216.837700654 29535688.67474452 6936906.141686512 20872235.35844936 17175937.31657172 33865940.04374559 25989304.3787673 21595275.629425906 39045097.47265714 3866643.8269785754 29610382.20875817 31606183.53621844 27123780.02256325 33042486.367732957 3747838.970788774 27509687.242669947 21349435.023622334 13106654.745901067 1681248.4721958241 35463435.931923136 27328488.558718424 6363439.881881831 26376389.655647177 5166686.549651881 1420540.7640479808 23021947.409945726 52594294.61246982 23203547.652500387 22212579.94849302 36369641.17088211 29110972.40624578 29516366.403668024 21813347.212019246 46906393.85912152 34510979.88403144 27871825.502662398 17783516.28596586 26238161.527723994 35904347.85948269 16232234.898249837 13841287.94646512 40760815.81254736 28580770.60797419 48588088.21847917 13404447.868095018 26813813.550137345 33548359.487736236 30351678.607590917 30147979.62705461 34902427.79226618 28080892.12190967 31662824.463154845 2705469.1559151704 29700263.7848199 23189327.538064737 10089456.451411761 40225630.26779648 58769957.944940686 21000934.882597405 5801087.737064584 20125133.473809168 24622081.406702522 27931841.851697836 39699079.281575575 29949440.859799128 19546009.51756883 27968946.616034098 7886317.780651533 58457979.199825324 22369943.741745435 25056667.9842144 60759876.11632698 46740370.61073835 26788063.275174312 36707082.31025896 25328182.686026335 13822295.323210528 222613.46349989163 19763699.395057276 28356278.459191415 20348571.26828798 46806632.29338134 81241861.79721603 50786971.58000723 22724643.639670223 22486170.368220873 40982086.938370444 25315578.68911017 30182814.464265507 75130811.5029613 8743206.110113535 23073557.374043714 16134501.240392806 4789280.203869627 101100860.15553959 26407558.07993964 30238822.930305477 20500385.78800738 496288.14734365145 33159567.634016544 10276125.259415502 48072265.78751387 33158105.274297073 12053156.681861209 30760719.28959199 18053019.636137035 33655196.76887074 17659580.948840063 28261980.932550173 80631625.1145085 19270677.720302258 31780514.20109697 27776748.088958275 2108959.864232172 39166098.84229872 203569.02731798057 20712076.531749696 61169727.446098454 20090872.221596673 23892873.06355326 14921297.46374678 29305823.855398793 24712106.02754664 23157926.705028027 8817885.218261244 9405204.42135019 32084099.379856426 34479263.21190273 25860794.378406122 25835212.052253686 6957263.954789173 24402971.134537492 75664610.7869914 21731443.2798562 188036.258651841 29548465.782994527 32895240.113617394 23583360.804173812 13018084.017772775 4033614.0139000975 17066185.257523905 2712811.3361027846 26264104.24166329 14018536.54694019 17919723.952863913 17835061.766664844 29800057.365531247 27759772.852122188 29540972.031293426 47613195.15266525 30106679.24329686 26170863.977329746 62914270.57813731 20209085.698976632 26404356.6447811 35742919.07920331 29388931.1030509 33860350.47613003 19803108.363576405 28240562.56580137 28267419.71397423 30116639.610625327 27434663.437473673 25864322.489887808 25625165.261765037 23998767.364525374 7730476.823787112 32432182.738489013 21700178.083742615 3626109.658252411 2807285