# vtk DataFile Version 2.0
Really cool data
ASCII
DATASET POLYDATA
POINTS 2029 float
10.0 25.0 0
9.999999999999998 2.5 0
15.0 2.5 0
15.0 12.5 0
20.0 12.5 0
20.0 2.5 0
25.0 2.5 0
25.0 20.0 0
13.421875 5.0 0
12.5 5.921875 0
11.578125 5.0 0
12.5 4.078125 0
23.421875 5.0 0
22.5 5.921875 0
21.578125 5.0 0
22.5 4.078125 0
13.421875 21.5 0
12.5 22.421875 0
11.578125 21.5 0
12.5 20.578125 0
23.421875 17.5 0
22.5 18.421875 0
21.578125 17.5 0
22.5 16.578125 0
12.5 15.5 0
20.0 15.5 0
20.0 14.5 0
12.5 14.5 0
10.0 24.63709677361402 0
10.0 24.27419354592701 0
10.0 23.91129031775874 0
9.999999999999996 23.54838709246676 0
10.0 23.18548386794702 0
10.0 22.82258064299358 0
10.0 22.45967741670554 0
10.0 22.09677418897655 0
10.0 21.73387095986818 0
10.0 21.37096773248194 0
9.999999999999998 21.00806450811888 0
10.0 20.6451612807928 0
10.0 20.28225805407666 0
9.999999999999998 19.9193548266023 0
10.0 19.5564515987474 0
9.999999999999998 19.19354837138494 0
10.0 18.83064514499617 0
10.0 18.46774191704055 0
10.0 18.10483869087001 0
10.0 17.74193546347678 0
10.0 17.37903223681661 0
10.0 17.01612900940379 0
10.0 16.65322578413419 0
10.0 16.29032255642479 0
9.999999999999998 15.92741932834607 0
9.999999999999998 15.56451610131936 0
10.0 15.20161287375545 0
9.999999999999998 14.83870964642377 0
9.999999999999998 14.47580642010495 0
10.0 14.11290319369939 0
10.0 13.74999996694269 0
9.999999999999998 13.38709674181718 0
9.999999999999998 13.02419351686376 0
9.999999999999998 12.66129029367583 0
9.999999999999998 12.29838706999966 0
9.999999999999998 11.93548384555825 0
10.0 11.57258062117281 0
9.999999999999998 11.20967739572134 0
10.0 10.84677417031325 0
9.999999999999998 10.48387094675739 0
10.0 10.12096772123179 0
9.999999999999998 9.75806449698064 0
10.0 9.395161271231192 0
9.999999999999998 9.032258046482013 0
10.0 8.669354822118947 0
10.0 8.306451597138944 0
9.999999999999998 7.94354837200364 0
9.999999999999998 7.580645146620729 0
9.999999999999998 7.217741922905391 0
9.999999999999996 6.854838700199402 0
9.999999999999998 6.491935475456518 0
9.999999999999998 6.129032249693084 0
9.999999999999998 5.766129024955096 0
9.999999999999998 5.403225801332082 0
9.999999999999996 5.040322577682138 0
9.999999999999998 4.677419353225353 0
9.999999999999996 4.314516127429037 0
9.999999999999996 3.951612901263398 0
10.0 3.588709677867029 0
9.999999999999998 3.225806452333023 0
9.999999999999998 2.862903226670315 0
10.35714285661005 2.5 0
10.71428571213589 2.5 0
11.07142857046827 2.5 0
11.42857142735092 2.5 0
11.7857142850142 2.5 0
12.14285714287573 2.5 0
12.49999999995663 2.5 0
12.85714285391503 2.5 0
13.21428571211111 2.5 0
13.57142856468173 2.5 0
13.92857141917294 2.5 0
14.28571427871344 2.5 0
14.64285713891684 2.5 0
15.0 2.857142857852235 0
15.0 3.21428571521503 0
15.0 3.571428572726516 0
15.0 3.928571430603533 0
15.0 4.285714287978719 0
15.0 4.642857145514987 0
15.0 5.000000002580401 0
15.0 5.357142861368146 0
15.0 5.714285719647869 0
15.0 6.071428578485179 0
15.0 6.428571437049889 0
15.0 6.785714296048281 0
15.0 7.142857154135942 0
15.0 7.500000011102228 0
15.0 7.857142866965729 0
15.0 8.214285723560286 0
15.0 8.571428580253976 0
15.0 8.92857143590683 0
15.0 9.285714290295818 0
15.0 9.642857145775196 0
15.0 10.00000000179977 0
15.0 10.35714285775001 0
15.0 10.71428571439413 0
15.0 11.07142857145955 0
15.0 11.42857142775673 0
15.0 11.78571428532397 0
15.0 12.14285714320719 0
15.3571428591223 12.5 0
15.71428571719138 12.5 0
16.07142857423201 12.5 0
16.42857142974857 12.5 0
16.7857142846084 12.5 0
17.14285714112862 12.5 0
17.49999999772317 12.5 0
17.85714285297952 12.5 0
18.21428571083795 12.5 0
18.57142855939082 12.5 0
18.92857141386655 12.5 0
19.28571427430228 12.5 0
19.64285713574168 12.5 0
20.0 12.14285714165368 0
20.0 11.78571428436058 0
20.0 11.42857142737726 0
20.0 11.07142856955135 0
20.0 10.71428571316279 0
20.0 10.35714285484745 0
20.0 9.999999995955926 0
20.0 9.642857135639455 0
20.0 9.285714276871845 0
20.0 8.928571418674213 0
20.0 8.57142856231663 0
20.0 8.214285703660536 0
20.0 7.857142844508807 0
20.0 7.499999985406642 0
20.0 7.142857130003156 0
20.0 6.785714275659092 0
20.0 6.428571419530735 0
20.0 6.071428563699761 0
20.0 5.714285706611115 0
20.0 5.357142850049079 0
20.0 4.999999993527312 0
20.0 4.642857137101577 0
20.0 4.285714282125578 0
20.0 3.928571425551149 0
20.0 3.571428569906041 0
20.0 3.214285713520577 0
20.0 2.857142857692707 0
20.35714285650163 2.5 0
20.71428571178895 2.5 0
21.07142856795603 2.5 0
21.42857142687388 2.5 0
21.78571428441634 2.5 0
22.14285713997626 2.5 0
22.50000000002168 2.5 0
22.85714285703133 2.5 0
23.21428571221953 2.5 0
23.57142856194335 2.5 0
23.9285714186928 2.5 0
24.28571427764782 2.5 0
24.64285713873408 2.5 0
25.0 2.864583333579086 0
25.0 3.229166667418379 0
25.0 3.593750001170938 0
25.0 3.958333335039145 0
25.0 4.322916669051911 0
25.0 4.6875000031225 0
25.0 5.052083336528115 0
25.0 5.416666669875903 0
25.0 5.781250004033231 0
25.0 6.14583333738102 0
25.0 6.510416671422698 0
25.0 6.875000005290905 0
25.0 7.239583339506053 0
25.0 7.604166674125976 0
25.0 7.968750007979722 0
25.0 8.33333334199249 0
25.0 8.697916675860695 0
25.0 9.062500009671076 0
25.0 9.427083343134518 0
25.0 9.791666678332678 0
25.0 10.15625001249001 0
25.0 10.52083334768817 0
25.0 10.8854166811516 0
25.0 11.25000001496198 0
25.0 11.61458334738459 0
25.0 11.97916667946025 0
25.0 12.34375001292369 0
25.0 12.70833334511499 0
25.0 13.07291667765324 0
25.0 13.43750001088538 0
25.0 13.80208334365493 0
25.0 14.16666667353327 0
25.0 14.53125000442354 0
25.0 14.89583333573303 0
25.0 15.26041666500421 0
25.0 15.62499999488256 0
25.0 15.98958332836045 0
25.0 16.35416666104326 0
25.0 16.71874999219373 0
25.0 17.08333332471754 0
25.0 17.44791665847009 0
25.0 17.81249999193352 0
25.0 18.17708332505002 0
25.0 18.54166665810869 0
25.0 18.9062499938851 0
25.0 19.2708333296615 0
25.0 19.63541666578485 0
24.65909090697006 20.11363636434331 0
24.31818181387862 20.22727272870713 0
23.97727272112545 20.34090909295818 0
23.63636362933978 20.45454545688674 0
23.29545454074166 20.56818181975278 0
22.95454545175678 20.68181818274774 0
22.61363635870555 20.79545454709815 0
22.27272726938004 20.90909091020665 0
21.93181817642107 21.02272727452631 0
21.59090908415283 21.13636363861572 0
21.24999999070893 21.25000000309703 0
20.909090898365 21.36363636721167 0
20.5681818062032 21.4772727312656 0
20.22727271532826 21.59090909489058 0
19.88636362288735 21.70454545903755 0
19.54545453222531 21.81818182259157 0
19.20454544067146 21.93181818644285 0
18.86363634917439 22.0454545502752 0
18.52272726008306 22.15909091330565 0
18.18181816691119 22.27272727769627 0
17.84090907624678 22.38636364125107 0
17.49999998161302 22.500000006129 0
17.15909089129634 22.61363636956789 0
16.81818180107666 22.72727273297446 0
16.47727271035784 22.84090909654739 0
16.13636362113641 22.9545454596212 0
15.79545453028867 23.06818182323711 0
15.4545454400335 23.18181818665549 0
15.11363634812483 23.29545455062506 0
14.77272725866684 23.40909091377772 0
14.43181816866006 23.52272727711332 0
14.09090907805834 23.63636364064723 0
13.74999998745307 23.75000000418231 0
13.40909089754563 23.86363636748479 0
13.06818180839043 23.97727273053652 0
12.72727271853859 24.09090909382047 0
12.38636362812021 24.20454545729326 0
12.04545453791708 24.31818182069431 0
11.70454544876188 24.43181818374604 0
11.36363635991656 24.54545454669448 0
11.02272727049761 24.65909090983413 0
10.68181818161208 24.77272727279597 0
10.34090909059876 24.88636363646708 0
13.29836716804519 5.460937501850858 0
12.96093749805554 5.798367170236416 0
12.03906249886036 5.798367168455805 0
11.70163282969542 5.460937497937477 0
11.70163283195481 4.539062498149142 0
12.03906250194446 4.201632829763584 0
12.96093750113964 4.201632831544195 0
13.29836717030458 4.539062502062523 0
23.29836716853658 5.460937500999747 0
22.96093749805866 5.798367170234614 0
22.03906249972091 5.798367168952648 0
21.70163282978201 5.460937498087458 0
21.70163283146342 4.539062499000253 0
22.03906250194134 4.201632829765386 0
22.96093750027909 4.201632831047352 0
23.29836717021799 4.539062501912542 0
13.29836716891448 21.96093750034519 0
12.96093749723044 22.29836717071278 0
12.03906249968323 22.29836716893089 0
11.70163282943968 21.96093749749452 0
11.70163283108552 21.03906249965481 0
12.03906250276956 20.70163282928722 0
12.96093750031677 20.70163283106911 0
13.29836717056032 21.03906250250548 0
23.29836716933758 17.96093749961236 0
22.96093749736115 18.29836717063732 0
22.03906250038764 18.29836716933758 0
21.70163282936268 17.96093749736115 0
21.70163283066242 17.03906250038764 0
22.03906250263885 16.70163282936268 0
22.96093749961236 16.70163283066242 0
23.29836717063732 17.03906250263885 0
13.0357142863834 15.5 0
13.57142857334916 15.5 0
14.10714285783675 15.5 0
14.64285714470339 15.5 0
15.17857143070267 15.5 0
15.71428571720997 15.5 0
16.25000000702564 15.5 0
16.78571428904744 15.5 0
17.32142857412979 15.5 0
17.8571428511085 15.5 0
18.39285713616606 15.5 0
18.92857142211578 15.5 0
19.46428571101452 15.5 0
20.0 14.99999999601014 0
19.46428571160309 14.5 0
18.92857142040583 14.5 0
18.39285713577575 14.5 0
17.85714284336419 14.5 0
17.32142855637984 14.5 0
16.7857142655791 14.5 0
16.2499999775787 14.5 0
15.71428569556309 14.5 0
15.17857141150299 14.5 0
14.64285712475407 14.5 0
14.10714284117721 14.5 0
13.57142856006613 14.5 0
13.03571428124737 14.5 0
12.5 14.99999999867727 0
22.26958274149815 10.95721052916667 0
20.79986499368108 12.70287990268133 0
22.0675207564937 7.588601309962359 0
11.19027247793568 23.35386304083931 0
14.65545902592658 17.77251277184088 0
10.36004924588453 23.29144874078271 0
17.54251370022386 17.66624592288946 0
23.86178336745624 16.99231951472439 0
20.87926174419512 19.5696034411492 0
13.80387590442377 8.854680006511865 0
20.30446326553214 19.1585578980278 0
10.57983303811232 16.63846109929658 0
20.77232787570201 10.17857142540164 0
10.84906700501841 5.623956596785963 0
12.50253841088172 8.750000008080407 0
[...]
CELL_DATA 3734
SCALARS Von_Mises float 1
LOOKUP_TABLE default
47956545.11185887 38450156.63034956 44298416.61215859 43390217.28005409 47984802.94665077 64061049.62143609 37938647.21414415 3559514.927567171 49725737.880417 54973039.17497277 124730739.43154684 39540098.26132967 48390957.990206115 36275182.73102701 54688301.17574901 53856544.18208685 37213565.56128046 58057756.4220951 44908916.02539959 38252503.34277057 32977316.879897654 44399995.07580692 47295741.1067124 77650166.40286109 33423322.54361421 47258484.641331084 46953872.61510453 38680272.37868122 43671286.349569276 38129321.169518545 36797786.3197981 53513993.320822455 57513450.14330715 54072497.24276866 5664725.44838551 48788921.4289364 37604562.57043103 44798091.36476178 6840699.559421555 49254005.56643933 48549780.35699508 48335871.844161615 46098419.501520716 44388418.75549975 22891323.137902256 38029401.57287771 20220231.312259387 9285262.987755684 16196371.164796917 14682472.783125171 44465660.88574738 50928212.008655645 43664116.31042825 27214109.52910933 41166618.757183574 35822462.51924357 50468092.59527249 39574072.222562544 47680855.199708715 47976168.99865383 49156295.410819925 32227380.513592765 32169639.595899265 61412841.82849415 27914405.06122787 38384738.05780916 43593373.26124224 51150579.42750403 34156080.52384969 48975061.57666026 48392664.2860708 31404019.272492923 47215353.83508009 42006338.75645498 50212936.08452656 61176049.1132449 44983727.56789057 17816861.682542287 55509962.68639713 54941834.51056439 75384140.85398468 38732872.94970365 10457728.130950037 40805050.610627234 38523513.40545433 47682029.84173395 55747781.85742622 35051582.81424568 48829538.12262682 49797746.559867814 49113255.66459979 42176966.62015267 46271742.07849088 61278669.47635217 48057423.86759028 46234575.28420795 28777242.45293056 53244337.08073672 48004865.72382448 30915466.005409226 44825105.25374071 24008429.018079717 33547738.7133798 47052698.24203758 48854590.468136154 7272680.724245874 44795690.29031403 7766948.117427099 35329375.89262905 31410863.523084644 85271897.90471259 45500321.97764155 46233427.358162194 36337402.54911391 1980010.8932633172 47419449.535917714 47232419.525703125 20983884.801526822 47511316.3020829 55819657.90871884 50258081.67195097 37658187.119213864 24173967.543928776 48445245.54328876 46579665.55346822 54857801.95681241 29360081.3223672 15974960.747294929 33940449.11989981 48391317.13956465 12648953.950961305 38249692.598276384 48843790.01118608 34051088.711544156 48458230.44230591 47823224.533904225 22610881.677832548 16332362.094118603 89443542.13587731 48609533.39817272 30880256.49090171 39099166.12629918 37973806.47131867 47073706.4913775 46217940.60240743 4225098.732290061 50447663.3567942 41019273.0492701 45604656.63267046 15558867.191928733 45933337.09188769 47819432.51971156 53315394.308841124 12964375.295556488 24281293.30159097 28884603.575625736 47873161.46846433 28783722.989882234 45059536.78696034 48323262.35865024 50419778.20471163 47087632.60592802 9907632.07816452 21674198.18756914 51285892.44239789 51351187.68917944 48329269.378236696 61366797.09139779 48754622.32326147 46841651.965017736 32013086.445229806 40775066.03560973 103924986.38793023 52540521.275724895 51358023.83279898 41942276.38823501 45010953.618252836 44279791.71464955 12231790.874326568 45589237.88868382 42582727.38969225 6366619.996069461 49371974.54436098 40728473.05719876 47486909.649932235 48728826.14128274 27209707.595315777 55354140.50295378 48161676.06753198 48533934.11399212 55647119.75610628 49883318.90775745 29822739.590171658 48315550.44426194 56210953.2512141 41682273.02407399 47895129.341324195 47943778.70127314 65904577.25959551 51013149.09737114 62190208.532661125 38208343.00881056 34624579.46618956 39810528.25831623 35289170.536450595 55174838.62762837 25533897.51034883 27273468.707979534 54423444.52716941 53884379.02079359 51416724.318000756 62204671.23916364 48024630.51957563 49046445.78790508 16173645.517732015 2421322.604056353 35573969.73892614 28817772.77260173 24833889.897404313 22116103.048951555 49401564.05201698 49944957.47389165 26621535.679278784 40473067.84231412 39154272.673437096 18176348.74955241 49340177.69765101 41329967.58915398 50947828.39293245 46628948.939034045 31553703.526681576 35057198.94696197 40976400.86982474 26622742.891335007 60688033.24969874 46632344.004854664 241833228.01083025 53953554.29296196 45577405.382162854 47019936.41194761 31836769.82925575 13588346.500237882 31811106.39440437 50268165.32371931 37293122.96689089 12398609.272487814 49048646.09429386 49516728.358138084 41706385.64707886 77608106.50902653 67034427.64554754 45871816.07376261 13987698.886555718 88933391.90385725 49324615.21089639 14067166.167873843 16214278.56580765 49250956.027272485 48905208.071603835 53964139.68346314 49735427.67521015 2150395.2338810614 89911224.60430522 49468197.02007071 38490091.25996269 49892842.89773232 23793375.300592188 12193533.759413006 70794083.29679844 48674371.320767194 50350447.91864108 53791395.58310376 29701545.9137262 40265129.73230908 38188725.58633392 50739831.18043193 48557592.46440745 39737696.36400053 69019856.47437291 5591230.899675173 56714555.24544622 33901692.515964605 57808971.89864026 29213448.410197448 44533561.58688537 51402982.2733234 2184931.020498965 55809502.71846787 33088655.67277092 38604175.53762616 24925985.132775564 23928518.69976846 49370546.91889646 49244639.76011754 53462293.390690036 14944339.938750055 76714796.08779657 49111637.30409341 10812919.851664348 45127571.02202758 56026019.46269257 46889593.05291764 26340397.6521028 35588648.697969206 46560440.0796852 41272897.19452508 52545883.52022239 39966930.98846065 120269804.95700468 56012145.87241348 10994775.861840544 45420993.334764175 52352968.921915546 10972430.497780358 23565485.301739268 49479585.90733323 49243606.95196421 45608510.796392605 49059393.02772932 48164405.30993434 45448474.74234034 17055216.438469555 49794880.99155193 34722940.17729569 32114598.44760055 44364687.74692341 46981999.2517082 16594090.182605907 16626552.963153027 10575085.78012056 11031201.09809562 27969029.204524487 37893051.76098516 54708443.19791485 51405824.73703008 35018138.030288234 44721532.47850076 51834007.22484903 9391176.552324295 61302625.4989738 28736073.67154352 44581836.83483039 50100184.388099104 60305983.44900422 40768202.59583371 57439969.588039696 16567870.25637031 34426599.69475067 122255348.0334999 16522539.983969515 41554148.83395627 38849599.478654794 41502951.179499 52859870.46186745 46578694.50286245 31575590.11553502 52369803.86682693 50329406.799710065 42036419.00485895 30270762.099925324 52402742.08989186 26847912.13251834 30875016.746738207 48609971.15025046 63903727.77583721 37084898.716324314 52917766.28998293 4313066.595492831 41874751.37211092 10970193.723985387 9146361.837139497 48759580.198719084 46162173.402323395 2663772.931747759 15341097.16753201 24868486.923430428 13147454.315910153 12459862.087054163 14507455.2365458 15244851.794153947 41730659.102451056 28462224.400800973 63383513.26741803 47931409.95517358 15715415.037151396 28590802.090148594 15771504.681740155 23417113.087328237 13107742.335721944 20616531.086378396 56844490.20289773 41623902.30800647 51720556.654554404 13093733.260271607 47140276.472065076 9040644.547341565 22707717.38176535 29806386.871021938 38860915.61865726 49390081.60384531 49740121.51174192 42331706.13141962 47861304.78598556 48532364.29269959 48889523.374576814 53521201.72566655 68917841.10887669 15501217.757070152 20991429.3296261 48642737.51750255 21898072.544061136 48388721.1362414 47603661.36652834 54548331.53258574 10829618.786387606 49899917.30183668 41693009.55478434 11064509.29213389 45592324.53756888 16600934.285843946 16600934.285843946 45649372.36142094 65617482.58504621 46664641.30835931 54000503.40952494 50190943.74794801 58377912.358182065 48924179.07725551 33442347.256020185 22435190.15647727 46082718.70490909 5148923.152560777 37057732.82459451 5524726.981613266 52070803.268560864 64861066.13319661 78470816.49149816 48071529.37208555 49415909.77282022 48077318.960725226 24901831.666421585 42757601.492367655 50062661.94246907 49487305.04823825 63684609.930248864 20958170.375083048 49156340.04466587 58803431.89401202 27111792.544436045 12601907.35612004 39935177.04668076 49614425.12311687 31482141.413813565 37320069.52910924 51922383.492292136 38561644.68646388 49987725.078231595 90241735.85840558 49746426.524735235 64396033.5773933 45736103.32512349 47392088.14824708 48636756.05580387 26303304.81202828 13019710.098889865 39990487.99312362 48112998.36427333 83447210.96361755 46873875.43570804 45475235.12712302 40818010.05301236 49343804.97623071 58300408.5789764 45548225.20125438 39184533.65316037 24393884.48299932 25407336.165343296 45664893.32893573 55806910.69785876 48111507.82905077 46780303.438142136 16718759.037034608 7186511.06054043 48088241.58078918 44519270.21941765 49390571.61322859 45747196.2771165 23657937.732257254 49009645.116976544 25977362.510207277 50709152.0628995 48945488.90040787 40887373.23757508 33349338.140274614 51382658.452247 37371925.40297002 14907345.825086841 52632627.15182434 49090032.07016481 42274968.54146005 32261908.43335132 36513016.53005022 47422867.36091367 43869102.17500336 48847920.55300327 35032294.2674988 35521407.83489725 19125516.950902734 33070681.228810027 35150978.73819717 10234054.815446105 32162285.03018371 31913494.003958076 68307989.06417741 3587745.688651329 35788439.568857744 23491102.287033696 48013605.811734445 21884529.581128962 16981398.28835145 36516732.358661406 49796686.62905645 9330893.586448932 44395058.074770086 40236900.713462755 54284156.631758384 48120631.41139588 14415998.59239498 48404275.79264064 48731585.22347617 23828586.974880278 24010220.524424493 17095851.349598233 16821008.05982307 55938669.29639339 48948689.8385822 32983748.852673657 23316175.797743913 35177829.35512808 23249391.654852036 13958542.789250672 554762.3748340802 29011163.181164693 2095132.4055019536 41192464.27679843 4589672.14000359 46484927.13657609 3767889.7887339615 33099704.119618002 37915054.9353333 10392660.737106238 54007727.9962136 50647891.61094542 45823985.90798981 63937815.91963941 50537744.56510821 81873013.29330707 18603572.387526367 25038927.76492756 52302604.25219235 33324515.833182625 2849573.7217537956 15557366.918672247 48043458.50503297 10296716.633892203 10217675.123756811 34838696.05013292 15161167.680535499 47669605.32909806 56998569.38674373 17774830.642362166 38899963.33329048 34518341.21487354 21953240.469859164 27869872.891945593 41158710.60919009 58689709.142660394 87374137.68745732 44034405.646016285 40949412.97913265 54730873.41501878 62717306.4097861 13562304.715897433 41536246.34893665 22061559.937116537 46623425.444720656 48767040.10092992 20301589.749920625 45637535.07297092 49882255.800437845 48043032.02541922 44865840.171514966 47315950.08023264 45981447.97558884 47976481.282156006 91180583.3787072 33298169.43837842 58310899.20196873 16040172.455028804 1943625.3814753243 30205498.885713063 47371287.5182127 33587440.872841716 15256077.381570319 49401677.34707585 20593424.5429837 8572854.978821985 35032025.39315679 93417358.99408177 46512346.46259698 63409630.09422259 45677306.14984883 39307585.87098021 1027867.7605860136 48016073.14276552 47762591.87859754 44210887.345256135 38398745.011859834 50059769.315066814 16833658.853709463 9376611.382833503 34785361.01421646 55591766.65959168 66482453.846424595 17712233.17892454 49439730.940975115 60862910.419621006 841295.0657447458 44681835.11373859 49072425.16643777 48641960.281805314 84016141.42482057 7410720.7217066735 54085115.87712841 70675466.62044394 15954275.387469858 49071300.26375637 55060249.77799317 54595499.40032721 10558011.616151009 52461611.72260951 43591248.95010624 51359285.16609262 22483731.366008915 34384740.603116095 63212603.9191196 43281829.12961076 24322698.217082143 49132456.80220812 49114237.69238755 15907722.529099757 14029417.900199976 48200596.15478364 54482963.75510598 17743606.27569214 74681192.13393115 66787200.27181089 14557051.604347255 15904150.68268752 50378533.6262143 24238785.911709215 53186408.850784056 44779892.153034754 46754763.62445677 59320508.60993502 56836765.275016226 51223238.05521746 7400555.270631866 52983690.67228688 65508543.13309955 45301291.404742345 40918096.59748633 48902837.7852248 34765825.760431625 42101814.81582608 49136678.251435295 27615987.1588596 43986838.28886905 6023411.545353491 47366130.198525175 53837448.95404949 45059822.37549026 27066145.82900863 50256836.60855602 74789327.95797738 44336537.61546053 9887680.894178906 28746811.512398537 57332411.284041025 48251185.43213278 48485485.460266955 57732455.92281528 12445411.225613577 15871636.564044122 45884253.44126727 38324766.06037522 15760339.20224139 22166279.735365182 44853017.643776126 22667607.55910446 34615623.6499522 48362484.130647644 31405900.19394991 49349546.75963221 48740611.29728245 84220523.81653601 67890854.68045868 35751658.32299588 35688927.788122416 46727046.47549663 58006689.50903382 81015346.62195702 42509395.50541442 29331362.475501888 63440572.685539566 48262078.74073588 69695776.59229703 43416962.189898506 12077585.049038917 31781644.05410007 5889731.8329661945 98120347.81284049 40776748.41183178 39908316.86941455 25952027.39761635 60046409.69575307 48804779.254442714 53844787.51001061 48448826.70967237 49894350.642791286 50580484.7585885 38961392.42902316 51402363.461652696 7169818.578755253 47525757.48381268 50385843.10555646 1341852.2582128022 34934015.38702308 217728614.7276955 54880050.096761115 46320212.67066624 42704898.802574255 47602788.20444123 28809644.39868497 44669616.29517038 8211807.128864507 9855805.2483008 6155303.124890142 94913051.53730263 49860975.00613184 50927753.55702369 47898473.29427398 48268335.05537128 57061709.890351824 69426517.76116057 15183799.385640647 45992100.580377884 22765257.04011669 20060302.850302447 48053955.14788205 44542552.6207478 22305542.813316166 41943406.400493644 92215192.41120788 8145524.690686808 23115386.306625925 19508193.841342602 32845099.519554637 11461988.279748622 50003766.48077892 38009786.590605155 42643389.67148893 44712225.54972505 48896756.44769823 40035123.15623438 21140430.856089797 47904135.50765037 40377883.85017065 34223354.51416533 33536445.324875653 38633069.4495111 48737121.57869972 27528490.35043032 48539332.330807224 46094996.97701445 38538160.483070105 62031107.29530192 45509085.024901554 47640275.073834 50298691.25013106 13106232.388982361 10220631.442246925 4479524.8986796765 27716783.554833245 39563113.723951235 48122797.82989229 50020524.39957959 8357092.1749383565 17046075.80363523 17900775.22401627 60670841.217871994 19449577.931021515 64459173.72072462 12765712.120252676 9511264.26086347 45726453.371458076 45699845.94161719 48976730.821843214 42913839.538739234 49868868.99274438 34097166.27770112 32051292.94049308 45927305.747886546 5490841.01919145 44904125.10754532 54876681.1660843 33656497.65846784 48157460.69440585 47940342.56810481 41392997.75206322 58366053.85905837 48699272.27832439 41982159.2459846 12786734.542120786 19489699.157007642 49615409.199425384 47365657.59431687 31357072.97256295 32920358.51677966 32144010.753873948 24058921.231293272 49060289.45434517 25620707.471258737 25475439.10088361 50530451.26199134 44956336.839823455 20113110.032701597 2155149.86466878 48006452.8248005 44175911.95130347 52023666.799630314 52184044.66595294 54936261.8222231 64983360.671049796 49697930.615941755 56523987.17510368 15606560.774762342 37119934.57056693 30668443.98929613 41989576.65541959 37380467.288596384 37601660.34755079 48030148.47490603 35557793.832862794 37313958.96717782 25592806.556746736 13572433.067974165 60447336.071563706 38272587.65640536 30674764.972445037 9748905.38980282 18617381.773868956 45635667.974234365 53745817.52532839 30369281.66401243 32143965.82996615 45196885.84839 48229757.30451766 9112194.066626342 5836760.108486974 81713376.9378328 24016018.152469452 8002527.448571683 11936806.001071515 43457535.28609822 53950626.98201072 47307805.68166504 43443839.30777005 53283569.64642353 23206011.93338886 48649868.06728644 37071905.670892194 12814136.367580224 69888247.07217807 9065835.701233018 39926007.0798637 44464905.90900088 49931037.943804726 46373612.46443137 58367979.467509754 48371481.61033933 31972932.31306077 22448968.597183827 35264523.885407686 84860897.64988199 12883934.267332476 14540306.247993404 47655935.32373943 56243242.98921232 49541733.79644632 31701822.244405624 1158577.9824804887 48599646.04800374 40836410.25065717 58716666.046306536 25343720.446345314 46295682.08207904 46994051.55162235 40229211.19071761 34797656.60315987 49486762.075663745 33029366.607547663 32577109.680063628 73139348.03912945 29554198.238608193 56190758.37081803 40216687.85444144 87122572.1378543 95943494.50786126 77755304.10566965 28421869.307193983 4150384.4768926986 49117473.62899394 35789453.90912522 37825714.81343038 1528321.9926899048 8076623.710666554 58720064.224128604 23433614.47971716 3697038.897651222 23184780.89477039 34029156.57566904 51184597.4883382 27960857.943043053 26342635.408557784 46983529.21182569 58875810.90587044 50667624.94961017 17820092.201583337 48485307.80909706 46585502.47143422 46510843.878659494 48290120.90933144 23099628.589756005 19541420.240063332 43277747.17969958 12215839.193083266 36141592.199972786 24188733.576888047 48812901.369567305 106634343.75288206 48888779.288051225 47793731.32482486 48894437.57300849 34321023.306798965 32748630.95790968 49252534.639212035 90084890.58377549 5552214.025868651 5680365.626597447 33063671.67509773 22318674.77281985 69443385.61518757 47321747.88626385 16582717.262941608 5403411.810772712 44944635.76737488 10028767.383373728 41535681.10815725 25253630.37989758 2689279.789914817 42898502.32458122 44259530.72392383 35943997.95679208 3674757.626034031 29065953.89150837 18654058.051109917 49901369.22578741 44494347.44719005 14232685.950815529 53405284.69984823 19064979.70794773 22348878.171634596 3780720.8239418473 25000358.891599137 4530061.07569409 42768090.66852682 77620822.93191887 17709826.690239504 10008781.097475598 3738193.5410135617 62552705.931608416 7768771.739984529 22709308.644823562 46195986.1124696 41252684.891278826 47655328.80685849 19998454.255392924 46286165.246686466 31376679.817020804 46669958.22877099 64783090.39820758 47494727.29921876 52723331.14645064 56505824.5306515 48815381.22906574 8142833.990600416 48874117.493336946 48614782.21530211 48681039.237996735 56254609.45102465 31481852.13010423 47684730.460725434 49622748.8395988 47608827.44632547 8153589.334652507 9407486.716229463 47701024.252167925 43085576.25528561 48166301.53618375 20158536.44057417 54869438.7399445 46937063.23947767 9323082.342763904 48068479.942178234 30255524.493763447 36384361.90326524 2920766.601054225 6919785.792093797 98374447.67320928 48278031.49878865 48786781.559822895 37644370.33443829 109740116.8916429 49214550.13526291 47031553.36663746 30349217.228829186 19778874.109502606 8767346.598603163 32922653.98860403 58252850.813314304 49626458.081943415 38603087.69830896 47553919.08609133 82302672.17922479 22873336.734327804 20780791.92926352 43255730.22924815 73933175.07732026 45010554.898986585 57852349.13713262 44962304.938108444 54109786.28881456 49989452.61392039 167890481.07948548 52531029.83193064 49042220.73645956 47200923.213541955 46075358.59274507 27884954.82710492 51288043.63454301 96576929.5176494 106277119.62228507 43823829.85093646 13220568.108233629 26944761.556506302 47883925.9629293 67310171.3421593 32656289.00823852 28751650.865070596 36222741.92886416 48490921.90243366 48224096.23763864 47669053.27909295 38018349.52183229 14655950.738351533 49791631.382133536 33866246.11240433 45165414.38339091 72235098.75168215 27995732.302656762 58444058.3882227 39758386.56579736 48723360.935248844 29139931.264728088 54077356.3735372 21710102.922513116 48475935.40751457 53061069.95181289 36442646.66126033 72552252.07151519 5