# vtk DataFile Version 2.0
Really cool data
ASCII
DATASET POLYDATA
POINTS 2058 float
10.0 25.0 0
9.999999999999998 2.5 0
15.0 2.5 0
15.0 12.5 0
20.0 12.5 0
20.0 2.5 0
25.0 2.5 0
25.0 20.0 0
13.625 5.0 0
12.5 6.125 0
11.375 5.0 0
12.5 3.875 0
23.625 5.0 0
22.5 6.125 0
21.375 5.0 0
22.5 3.875 0
13.625 21.5 0
12.5 22.625 0
11.375 21.5 0
12.5 20.375 0
23.625 17.5 0
22.5 18.625 0
21.375 17.5 0
22.5 16.375 0
12.5 15.5 0
20.0 15.5 0
20.0 14.5 0
12.5 14.5 0
10.0 24.63709677361402 0
10.0 24.27419354592701 0
10.0 23.91129031775874 0
9.999999999999996 23.54838709246676 0
10.0 23.18548386794702 0
10.0 22.82258064299358 0
10.0 22.45967741670554 0
10.0 22.09677418897655 0
10.0 21.73387095986818 0
10.0 21.37096773248194 0
9.999999999999998 21.00806450811888 0
10.0 20.6451612807928 0
10.0 20.28225805407666 0
9.999999999999998 19.9193548266023 0
10.0 19.5564515987474 0
9.999999999999998 19.19354837138494 0
10.0 18.83064514499617 0
10.0 18.46774191704055 0
10.0 18.10483869087001 0
10.0 17.74193546347678 0
10.0 17.37903223681661 0
10.0 17.01612900940379 0
10.0 16.65322578413419 0
10.0 16.29032255642479 0
9.999999999999998 15.92741932834607 0
9.999999999999998 15.56451610131936 0
10.0 15.20161287375545 0
9.999999999999998 14.83870964642377 0
9.999999999999998 14.47580642010495 0
10.0 14.11290319369939 0
10.0 13.74999996694269 0
9.999999999999998 13.38709674181718 0
9.999999999999998 13.02419351686376 0
9.999999999999998 12.66129029367583 0
9.999999999999998 12.29838706999966 0
9.999999999999998 11.93548384555825 0
10.0 11.57258062117281 0
9.999999999999998 11.20967739572134 0
10.0 10.84677417031325 0
9.999999999999998 10.48387094675739 0
10.0 10.12096772123179 0
9.999999999999998 9.75806449698064 0
10.0 9.395161271231192 0
9.999999999999998 9.032258046482013 0
10.0 8.669354822118947 0
10.0 8.306451597138944 0
9.999999999999998 7.94354837200364 0
9.999999999999998 7.580645146620729 0
9.999999999999998 7.217741922905391 0
9.999999999999996 6.854838700199402 0
9.999999999999998 6.491935475456518 0
9.999999999999998 6.129032249693084 0
9.999999999999998 5.766129024955096 0
9.999999999999998 5.403225801332082 0
9.999999999999996 5.040322577682138 0
9.999999999999998 4.677419353225353 0
9.999999999999996 4.314516127429037 0
9.999999999999996 3.951612901263398 0
10.0 3.588709677867029 0
9.999999999999998 3.225806452333023 0
9.999999999999998 2.862903226670315 0
10.35714285661005 2.5 0
10.71428571213589 2.5 0
11.07142857046827 2.5 0
11.42857142735092 2.5 0
11.7857142850142 2.5 0
12.14285714287573 2.5 0
12.49999999995663 2.5 0
12.85714285391503 2.5 0
13.21428571211111 2.5 0
13.57142856468173 2.5 0
13.92857141917294 2.5 0
14.28571427871344 2.5 0
14.64285713891684 2.5 0
15.0 2.857142857852235 0
15.0 3.21428571521503 0
15.0 3.571428572726516 0
15.0 3.928571430603533 0
15.0 4.285714287978719 0
15.0 4.642857145514987 0
15.0 5.000000002580401 0
15.0 5.357142861368146 0
15.0 5.714285719647869 0
15.0 6.071428578485179 0
15.0 6.428571437049889 0
15.0 6.785714296048281 0
15.0 7.142857154135942 0
15.0 7.500000011102228 0
15.0 7.857142866965729 0
15.0 8.214285723560286 0
15.0 8.571428580253976 0
15.0 8.92857143590683 0
15.0 9.285714290295818 0
15.0 9.642857145775196 0
15.0 10.00000000179977 0
15.0 10.35714285775001 0
15.0 10.71428571439413 0
15.0 11.07142857145955 0
15.0 11.42857142775673 0
15.0 11.78571428532397 0
15.0 12.14285714320719 0
15.3571428591223 12.5 0
15.71428571719138 12.5 0
16.07142857423201 12.5 0
16.42857142974857 12.5 0
16.7857142846084 12.5 0
17.14285714112862 12.5 0
17.49999999772317 12.5 0
17.85714285297952 12.5 0
18.21428571083795 12.5 0
18.57142855939082 12.5 0
18.92857141386655 12.5 0
19.28571427430228 12.5 0
19.64285713574168 12.5 0
20.0 12.14285714165368 0
20.0 11.78571428436058 0
20.0 11.42857142737726 0
20.0 11.07142856955135 0
20.0 10.71428571316279 0
20.0 10.35714285484745 0
20.0 9.999999995955926 0
20.0 9.642857135639455 0
20.0 9.285714276871845 0
20.0 8.928571418674213 0
20.0 8.57142856231663 0
20.0 8.214285703660536 0
20.0 7.857142844508807 0
20.0 7.499999985406642 0
20.0 7.142857130003156 0
20.0 6.785714275659092 0
20.0 6.428571419530735 0
20.0 6.071428563699761 0
20.0 5.714285706611115 0
20.0 5.357142850049079 0
20.0 4.999999993527312 0
20.0 4.642857137101577 0
20.0 4.285714282125578 0
20.0 3.928571425551149 0
20.0 3.571428569906041 0
20.0 3.214285713520577 0
20.0 2.857142857692707 0
20.35714285650163 2.5 0
20.71428571178895 2.5 0
21.07142856795603 2.5 0
21.42857142687388 2.5 0
21.78571428441634 2.5 0
22.14285713997626 2.5 0
22.50000000002168 2.5 0
22.85714285703133 2.5 0
23.21428571221953 2.5 0
23.57142856194335 2.5 0
23.9285714186928 2.5 0
24.28571427764782 2.5 0
24.64285713873408 2.5 0
25.0 2.864583333579086 0
25.0 3.229166667418379 0
25.0 3.593750001170938 0
25.0 3.958333335039145 0
25.0 4.322916669051911 0
25.0 4.6875000031225 0
25.0 5.052083336528115 0
25.0 5.416666669875903 0
25.0 5.781250004033231 0
25.0 6.14583333738102 0
25.0 6.510416671422698 0
25.0 6.875000005290905 0
25.0 7.239583339506053 0
25.0 7.604166674125976 0
25.0 7.968750007979722 0
25.0 8.33333334199249 0
25.0 8.697916675860695 0
25.0 9.062500009671076 0
25.0 9.427083343134518 0
25.0 9.791666678332678 0
25.0 10.15625001249001 0
25.0 10.52083334768817 0
25.0 10.8854166811516 0
25.0 11.25000001496198 0
25.0 11.61458334738459 0
25.0 11.97916667946025 0
25.0 12.34375001292369 0
25.0 12.70833334511499 0
25.0 13.07291667765324 0
25.0 13.43750001088538 0
25.0 13.80208334365493 0
25.0 14.16666667353327 0
25.0 14.53125000442354 0
25.0 14.89583333573303 0
25.0 15.26041666500421 0
25.0 15.62499999488256 0
25.0 15.98958332836045 0
25.0 16.35416666104326 0
25.0 16.71874999219373 0
25.0 17.08333332471754 0
25.0 17.44791665847009 0
25.0 17.81249999193352 0
25.0 18.17708332505002 0
25.0 18.54166665810869 0
25.0 18.9062499938851 0
25.0 19.2708333296615 0
25.0 19.63541666578485 0
24.65909090697006 20.11363636434331 0
24.31818181387862 20.22727272870713 0
23.97727272112545 20.34090909295818 0
23.63636362933978 20.45454545688674 0
23.29545454074166 20.56818181975278 0
22.95454545175678 20.68181818274774 0
22.61363635870555 20.79545454709815 0
22.27272726938004 20.90909091020665 0
21.93181817642107 21.02272727452631 0
21.59090908415283 21.13636363861572 0
21.24999999070893 21.25000000309703 0
20.909090898365 21.36363636721167 0
20.5681818062032 21.4772727312656 0
20.22727271532826 21.59090909489058 0
19.88636362288735 21.70454545903755 0
19.54545453222531 21.81818182259157 0
19.20454544067146 21.93181818644285 0
18.86363634917439 22.0454545502752 0
18.52272726008306 22.15909091330565 0
18.18181816691119 22.27272727769627 0
17.84090907624678 22.38636364125107 0
17.49999998161302 22.500000006129 0
17.15909089129634 22.61363636956789 0
16.81818180107666 22.72727273297446 0
16.47727271035784 22.84090909654739 0
16.13636362113641 22.9545454596212 0
15.79545453028867 23.06818182323711 0
15.4545454400335 23.18181818665549 0
15.11363634812483 23.29545455062506 0
14.77272725866684 23.40909091377772 0
14.43181816866006 23.52272727711332 0
14.09090907805834 23.63636364064723 0
13.74999998745307 23.75000000418231 0
13.40909089754563 23.86363636748479 0
13.06818180839043 23.97727273053652 0
12.72727271853859 24.09090909382047 0
12.38636362812021 24.20454545729326 0
12.04545453791708 24.31818182069431 0
11.70454544876188 24.43181818374604 0
11.36363635991656 24.54545454669448 0
11.02272727049761 24.65909090983413 0
10.68181818161208 24.77272727279597 0
10.34090909059876 24.88636363646708 0
13.53936447392977 5.430518861761812 0
13.29549512714208 5.795495130527656 0
12.93051886163336 6.039364473982978 0
12.06948113743464 6.039364473596931 0
11.70450486924562 5.795495126915347 0
11.46063552506678 5.430518859339278 0
11.46063552603309 4.569481138327832 0
11.7045048727207 4.204504869609567 0
12.0694811382365 3.960635526070925 0
12.93051886277896 3.960635526491545 0
13.2954951309342 4.204504873264463 0
13.53936447498188 4.569481140778189 0
23.53936447355998 5.430518862654571 0
23.29549512629944 5.795495131370292 0
22.93051885878755 6.039364475161753 0
22.06948113763989 6.039364473681951 0
21.70450486886492 5.795495126534648 0
21.46063552518245 5.430518859618539 0
21.46063552641138 4.569481137414567 0
21.70450487359473 4.20450486873554 0
22.06948114105052 3.96063552490532 0
22.930518862583 3.960635526410373 0
23.29549513128127 4.204504873611536 0
23.5393644748571 4.56948114047696 0
13.53936447365637 21.93051886242186 0
13.29549512687994 22.29549513078979 0
12.93051886148198 22.53936447404568 0
12.06948113686453 22.53936447336078 0
11.70450486830503 22.29549512597476 0
11.46063552461264 21.93051885824288 0
11.46063552634363 21.06948113757814 0
11.70450487312006 20.70450486921021 0
12.06948113851802 20.46063552595432 0
12.93051886313547 20.46063552663922 0
13.29549513169497 20.70450487402524 0
13.53936447538736 21.06948114175712 0
23.53936447334172 17.9305188631815 0
23.29549512485563 18.2954951328141 0
22.93051885758087 18.53936447566158 0
22.0694811368185 18.53936447334172 0
21.7045048671859 18.29549512485563 0
21.46063552433842 17.93051885758087 0
21.46063552665828 17.0694811368185 0
21.70450487514437 16.7045048671859 0
22.06948114241913 16.46063552433842 0
22.9305188631815 16.46063552665828 0
23.2954951328141 16.70450487514437 0
23.53936447566158 17.06948114241913 0
13.0357142863834 15.5 0
13.57142857334916 15.5 0
14.10714285783675 15.5 0
14.64285714470339 15.5 0
15.17857143070267 15.5 0
15.71428571720997 15.5 0
16.25000000702564 15.5 0
16.78571428904744 15.5 0
17.32142857412979 15.5 0
17.8571428511085 15.5 0
18.39285713616606 15.5 0
18.92857142211578 15.5 0
19.46428571101452 15.5 0
20.0 14.99999999601014 0
19.46428571160309 14.5 0
18.92857142040583 14.5 0
18.39285713577575 14.5 0
17.85714284336419 14.5 0
17.32142855637984 14.5 0
16.7857142655791 14.5 0
16.2499999775787 14.5 0
15.71428569556309 14.5 0
15.17857141150299 14.5 0
14.64285712475407 14.5 0
14.10714284117721 14.5 0
13.57142856006613 14.5 0
13.03571428124737 14.5 0
12.5 14.99999999867727 0
[...]
CELL_DATA 3776
SCALARS Von_Mises float 1
LOOKUP_TABLE default
41120136.00800038 57984130.84890641 57202738.56782698 40635087.84321896 111196813.20720226 60680264.12104311 4123045.6229810338 73852577.23645319 86149284.57742849 170313764.33039907 13935860.968096407 76456157.3950342 78119224.51984893 59582336.82255288 56156845.148469284 37226998.14498495 58768906.924944475 22205108.236570258 60570616.04225764 62554375.08072616 66733352.776959285 51671683.74587009 58057162.84719953 45711550.00554403 41577746.4492804 66665033.856389046 37522491.70660904 73021141.95592374 45271536.42032929 44165645.17015444 10474643.907818716 29976648.701534037 60507544.317654274 80057192.05042177 68794693.63769507 78480197.97112498 57592492.451586574 60179428.50333657 9655092.18646408 65957274.48743126 60764721.146630615 64713644.019461505 59636152.46349471 55412582.61085517 74756561.0473612 22931889.314667735 21115467.848406292 59172124.498252325 51534516.9975736 2047109.2779818864 23187468.743064824 60872058.95279065 57366279.4100248 27052566.20209159 37233813.746961646 51424618.72294254 82050272.16242427 25411405.99645812 66881181.56698122 82308748.04878478 64093042.17513276 42304122.04456706 31206725.057822693 22246598.707415856 56235430.172846444 65896119.39735768 165434049.34482837 60653477.19113036 19899425.125049844 71952305.89811914 50257651.53296799 52270329.00993456 37711091.2364158 8735550.829074437 51321225.86971426 62928489.76009649 62901748.01649729 44967073.196728736 51669573.04467568 39442974.91062375 77351850.14118026 35456286.45938834 66692166.58731692 68729570.78253812 66123150.60892505 39689694.94483197 19827763.559716202 59529139.51455704 26756711.193675887 48398415.55247046 77322319.58666645 323896534.15097576 50661007.71609894 59774478.835733384 65743843.20074254 81727777.06611711 169961382.29030776 52691040.11230479 62911740.358795136 61078188.71562771 60989448.77667546 70825130.57618193 61130209.0398281 72248262.32908815 72708465.10352229 48453957.02463805 60297229.37513522 79309598.9266233 51661107.7696251 49710076.2424551 33810685.33825944 121298008.94617285 50799885.18684995 53741051.879351825 37220409.379211634 50427220.679846935 81519977.71918815 42860854.305684015 62071907.4570426 60362567.855252355 61522055.949235365 62132495.75451278 26848704.3810905 67930532.66757542 53058009.40855821 34019598.88368519 49517249.178336695 62265647.03920842 66225004.71157814 64554827.50317165 37577344.66999043 70289989.33572839 23209923.346523564 44050197.81391492 79747255.75771676 64745579.2045946 36227197.409710936 57911811.29947312 31289448.285263848 23091343.486446515 63756939.06542549 40789889.15341598 28356657.99137745 68032301.79440194 31356206.57953536 49892779.652212724 24701933.771153044 53214511.41685062 44207310.83547038 63150587.4453916 23681851.87954675 63249960.02177434 63514530.38578082 57680213.601673044 2968484.1896644295 71116185.96163477 78873296.9897678 64145380.16145028 166280651.0544074 70030515.61229965 62305391.380023904 68768088.29205729 67998440.6637356 3245277.8077097666 47941528.38356102 71341370.29718402 23932855.53764616 50018544.86824692 59050946.9890937 140931917.3620408 70743081.34559822 31213038.653802894 73424060.14309318 67948939.73738042 50014585.63079464 74187812.4115344 74313855.52854775 60611863.10062687 8549350.934860079 59580147.43875304 31635477.997820072 42408024.45391238 63674312.0019775 69460640.867157 64194320.083770685 57970614.10428177 59001020.69317371 63405847.134393886 70267181.30479808 56569898.02156711 75366756.50319488 69531150.43420687 40311140.198982365 67001110.2671442 3126480.067294901 31746711.968973942 55594802.45316276 72263042.8314345 48977950.64287897 46275800.751193576 88751250.9944884 67833199.99697818 52617485.20383806 39304631.98434513 21726901.097680915 21880490.5921327 31285310.609095216 61243837.77910803 28006788.81101927 31289336.958521124 30719376.63113274 62010106.22743412 27741585.814263422 86899254.4609251 61516311.89756833 63849179.24017037 16771372.325491032 32297271.9849938 22739345.676776562 40406809.733947255 1987885.5698797249 61586141.094154865 65785019.95987695 66480988.5042226 30331796.85336277 53383647.00491643 38983366.71752337 84978272.12889943 84606206.29947826 58202611.48376554 6258994.858482104 65132454.771863975 31939093.379094865 58527736.05233626 56787480.3816141 75608641.46145223 16320475.473024359 94751930.81923851 69539536.84540679 18016583.606271666 5559024.271419103 68514743.01620103 71949653.04687132 32474068.795741767 60062983.62388479 61771334.47845117 31683608.323629048 40719201.975421935 62810118.854306564 4119496.9815248386 104906628.3879457 21612056.803083103 57831645.59250858 16565810.910153838 59356999.12198917 37172996.320292525 51011892.851022616 55381091.05436088 42828620.67891501 66205369.56367726 20413536.62224467 22915934.159489747 42446095.81224513 72235953.18477803 55390940.47043705 17517121.88749746 17552537.40374133 70808396.16012146 53891618.89228499 54020228.21831553 70300770.29158369 54128881.450504676 73159649.35116506 34250092.38778415 6693558.4544099355 67403083.20802993 95588553.18371303 64439769.105049245 71147916.01484667 35924146.87057245 67223717.8970435 34399146.70612997 76789799.7970265 76326248.35533597 34825261.5260076 49272812.12668419 77050132.58487016 80995223.85484047 41378390.24053762 96709092.33228858 69783775.47762452 37204208.91795115 56183432.79434463 58379909.9195831 68726038.62481311 20014837.225298323 72185116.75250755 52102733.792253755 102932771.63617724 29761998.582412265 30288240.05888263 65460042.79238793 32499164.93901916 72089222.77889924 65941004.39917714 64537055.07530738 52785846.58409273 21709793.14460575 13957445.485554723 59538068.15767234 60269998.70416796 69070504.42490983 63718228.21644917 63798212.55387581 57059130.34050368 47798072.96377932 34256943.88820304 35172395.593546756 49836727.676820815 49715491.596508965 68881053.90894051 29191537.48339161 38527507.23153956 87274926.80846612 62004214.73766864 71671048.38711101 58716163.17738111 58771148.71402824 71643383.25963579 58194576.73448257 65447475.03143126 58481415.74516722 65444494.86791105 69246711.95442334 59154208.81653147 59741127.7764577 70312577.1809363 50767879.44546383 57939315.91585805 63959642.054483294 64663393.50985002 52443515.22576377 628376.2663612927 271784.21453330736 272140.83663377713 616352.1656078204 42277633.441941775 65606069.696521044 66226989.67832896 65402556.750412755 57323946.96106509 53624406.4198761 70406527.05915649 59141231.315506354 56956438.60146345 3784913.783508809 69452156.28324431 71304151.31587738 53647491.883016706 58457548.495389946 30090786.647359096 10987310.070296632 46240516.84496431 83362674.86894064 69943435.79869534 81228698.30985081 70501498.83624558 35846481.47035459 33902419.119740926 74274602.11345628 9680688.356103633 68923869.6416457 4096992.558897124 60007666.538221456 69184663.92353216 16030994.978047665 72507307.36744826 66789918.43841938 43117181.90971284 60036175.08014307 70327914.6962247 62643556.21336171 643416.8928900993 18167059.479082804 67335680.39251858 91810782.16746204 61068432.40699446 37551750.34057339 63044211.041820526 70327398.218233 38018268.635925144 56794089.396350235 69105864.3769704 55213929.75759738 63497912.949716836 65597940.386689685 948730.9689014712 73758709.88654391 54267885.57573266 649900.6510877402 773554.0593784661 70771568.557007 30219898.545630053 68475666.87966678 15546217.765556488 74679805.8271649 62436710.429110296 55202852.19203995 42283495.10576958 55791621.324937105 68714490.97005653 34031150.79344495 33726765.44914431 77094469.44884565 57590298.291472465 57138265.897388406 40342214.440853864 110442847.93678443 40367269.658950634 52341154.84125163 7808490.904022873 36445554.978759125 18274541.84914308 6002496.155594261 66777431.48831285 57975295.37957831 21536335.272937715 13923767.049508682 26761983.483374972 60446578.3719391 66377633.67494574 26140647.853639834 327636.7362343135 76259492.14499316 26280714.51620103 55989624.07758528 59408904.4828304 62335622.86091808 66309542.108992584 67178670.95794174 74627350.78574441 67447036.33722878 65245546.95196733 18261088.31499005 46699932.59469518 29652518.577432126 66440954.17163738 72140296.63734378 48122403.194388896 72908254.90180434 91990228.59545112 4811325.31896316 70865283.84936698 6832142.449100485 44914335.28813364 4865427.017133524 341149.097972506 65829185.96691626 59044936.14089873 37277633.86456066 61858597.067922756 23732549.266592994 23732549.266592994 68193353.51123898 68943274.31882581 57717289.72754235 19108863.605759677 66637961.15782911 61242615.51127957 60757931.66873645 47386111.10187695 22973689.74908882 28275250.828076202 46746348.35954032 35766642.35562676 47519181.77805124 69982862.12912747 129842058.28533688 60282716.49263206 64052277.49553367 73642948.59501556 66778633.55494617 69522639.76229836 64010973.18814347 48790621.964277074 80131406.81889777 44283678.539650805 49958794.60330898 49348551.35956745 70718178.06747958 67815580.23987639 2244438.6631840793 66090669.39570623 64560441.88998412 64659903.42129511 17093594.462236423 69224151.28871115 80464334.27253592 97984491.28167838 48988849.81006779 61098684.871313214 66004119.84114198 6050790.812537037 5996277.66113098 39816565.63036787 86820933.30531947 60716662.353496365 39801073.68372758 71099797.8088391 18120639.311514284 56036911.52535151 63424168.206873715 103890040.36918026 71497565.85335489 64109790.56802395 116664018.11444142 65018170.975312866 54156338.52813645 26076335.045371935 27287151.865287296 29245849.59394787 60737348.426881924 3770820.516674505 51300591.664233536 50304481.09364708 24516886.16045086 61320109.44651359 62068453.57976701 75276008.76532693 35275343.49632055 69158434.61786121 67136889.87856662 60330980.592956305 71118389.23597421 65836046.19614731 55653984.16571126 42795791.79789956 42023560.477088645 52328133.47529334 68718034.69097647 75180974.20834282 70128152.2164415 41999410.95016516 32810728.74400183 4782703.30410496 42942554.4609074 113266218.00006574 58997245.810616255 39766272.554886214 68230696.4807265 46427585.69859477 96345202.79043505 72814451.96500513 48080825.89596754 69268282.40389508 64144687.124012634 69948477.34445891 31093322.869152278 59294124.78371441 69235482.80241503 28166339.775201987 66074509.83371615 28211620.629695285 59705654.560182996 27625107.168125514 65501983.984619565 19936468.41938889 64239971.461807065 64828190.20515917 65485601.441761546 60542227.86976812 8614381.306120826 45860925.002625324 28157427.814331282 39315847.61037339 3352683.9494914403 56267639.75154893 54777733.29157781 27576996.667355027 63950331.895179905 9878325.58670607 46331150.19962776 43568604.36883276 75752716.62110823 72325549.36841579 67496748.4045709 39675247.37411748 61761842.37911602 56235855.024549335 4992759.262264435 25656517.07944352 31902674.64400738 5015388.073380532 33259659.824696302 29780414.126997225 45599751.20115588 68789531.63082065 35668286.25000363 48949442.91847143 63590125.09794882 76484977.63980882 42268943.784303404 123772250.20874032 20241683.201132156 70413444.30152781 100160995.59990011 35818058.57162972 29102714.242489807 57658262.561381675 58990243.45558134 50152558.35111244 61143829.80220366 72775962.36563592 84490584.60908973 54441626.00736983 24841795.25677538 66180333.5346809 51778713.929378554 64478061.71811201 28507961.180166088 66263390.745819956 58266385.78885384 64104591.33049318 53781406.16032975 47523186.632614665 35913315.3601 62183386.84375602 132541151.49346556 128065095.53829995 49052111.40906948 49257765.79611668 39565193.28345284 61266268.75553087 50515989.29824653 52207187.63070387 12077815.74194488 59248716.13859604 6037772.435537146 8480166.791287268 2391649.5339865633 68316061.1752415 47120257.103384845 62095279.55921314 12485984.786299948 68131333.93038978 63651962.919349015 38123721.17090925 35282608.874974646 56277621.66371983 7363392.317496074 15781766.955781095 37101657.81238723 96310774.26806055 66442929.45484988 73015998.07102796 15857719.327925926 82028199.98090464 16040706.545556562 41569907.51334232 44269739.45114386 59796459.394971065 59451924.61323425 47367576.97305531 105830087.86223756 102962253.83713019 104540982.91218619 71696884.97856674 65365543.0937447 48108328.24713102 40394197.803570665 56815021.58286846 17769739.93387426 45597065.780653395 45837190.631039284 68457139.98148145 71907095.53308952 51517072.589754395 65834930.78206274 26566625.725258622 59054663.83753764 70943679.900351 83757721.11007848 34370732.56796616 46188375.37970198 65157419.361809544 58775514.171507224 63876073.87086526 25408295.5209618 65796709.72792756 29963479.57283967 49164859.46489961 69440883.53637803 59623109.28005992 76234651.74833278 69593309.92368813 59053063.6195857 100422165.35287632 72571638.26413567 88360753.13682672 60332812.98459114 65513401.885364294 44377452.50045241 65458788.1960522 58475831.50671595 100847579.948904 85915527.60200639 85874689.0123634 73821892.0885689 40388497.0734391 75254437.56923212 60677773.94289782 74163319.52322757 17604629.493423577 71047579.93748736 57695356.16297385 68024889.95925054 64629625.00406753 22246711.575003598 60793526.1489491 58676673.514780395 34296752.667987876 69776543.30877486 99728888.56782898 101055313.98687764 58877769.57407491 59915223.098434374 28223478.20477896 70218896.10990466 12893783.807000905 62197628.76975571 84446655.70045792 84199005.04213275 76043981.55322655 33291193.860411245 33296658.26846607 46289549.526886724 115831421.89670134 41313885.31946844 46324806.856779255 108738332.19372576 57930962.1191602 39424945.431331106 73872558.77311507 69648436.98200923 46834910.98199041 67096630.37769153 70117525.50904883 26571730.952524643 57641089.7357744 64758339.368576884 43889977.44412146 60443024.02448624 118492916.43845509 55996374.016960114 88963601.2750453 64679111.92684463 57613408.725244306 58427353.142004035 14893322.501129018 59648010.49808442 67017673.172019 75791913.26760027 137291989.9360117 15007642.470218869 76324466.76580004 65932211.979938135 57524301.19874193 63431754.55079613 37528394.79959393 72009472.76128061 69085036.05326118 67587428.41076238 71574421.1944793 67084422.677031904 132809167.71628112 53329820.65227282 64857061.12663948 55698558.0332665 64383898.792349026 59658526.49690735 70846834.80232498 63287258.93716951 76868979.70055923 52601260.79856632 97278551.39373864 56096321.58963184 24112544.580677357 25930015.717154976 59162910.86434164 62435764.75463126 5229239.867639163 25294242.828113753 65943783.74902992 33664267.64856845 62020807.4721677 57164067.85101211 39835111.292056575 50213477.95829103 56872156.37666792 59191765.05415404 99118896.87818657 17843743.788291126 43552995.366528764 55122687.72162511 46043898.02955891 33827510.72043953 31479780.885850027 46570585.843050115 67177970.07247292 65346387.29596255 30312240.890248965 30567099.53914764 83531510.52458903 27974190.79869222 8527251.114211924 117372828.4723841 64180594.54144332 83311497.01987666 50683561.99479198 89813588.9801767 71748287.85012114 74599694.43475437 13504391.639793774 61895328.88132495 35976602.024746135 78017190.5101219 28960025.11296706 67351678.17470945 43210004.045330286 43511886.03768694 68794860.68568215 8047620.682601444 61999700.30846092 58932142.18562924 47926753.2615045 35302659.44951763 56247691.59867352 59692534.063998796 23860818.527394827 55923016.62558108 41949764.36066898 57543213.56534953 64384558.16274502 35937878.36478435 27576993.72177422 55665581.633981414 27442976.107281443 63213045.45376934 11106431.275364555 5577750.473443423 27348833.603733033 51112424.81175772 68950374.48214652 64156974.40623033 58372844.88783824 72585251.20325387 87878820.56045236 89083283.23485851 29687729.197381463 58002471.66746262 42989178.471218355 58611197.57964468 42895886.64982226 22192990.00104506 75990452.4435554 64221219.41368077 67334720.15408765 59563212.32297245 49871846.50642341 51850897.01779504 33624067.566355325 88305491.10060287 58681960.69514603 47517626.46353183 66849049.67127074 97937773.38711499 109175922.75266531 20820941.315740846 9277595.84009357 8936801.99610515 44909890.77060381 20348218.74690475 57752744.50063645 71848698.26737124 48290652.42135915 37201611.522552334 46777930.46813013 59130736.860033624 57947034.847830065 35341030.04318333 70138776.95870236 68763098.39460538 69789694.78632858 79324571.76756434 69396057.5050989 118813316.67741168 71496534.39065456 70646968.26032516 20599033.73377478 65813776.53466013 118295161.09149228 78825371.23219657 131829458.50182134 78922364.10978135 48246924.46861313 66242491.7689104 49357196.63942644 61709150.26694324 49744905.27411323 77005162.55381656 103325888.7030249 87650377.74587087 50889663.678960636 53007368.67355076 50233805.41225289 64346981.22095466 68803685.23462933 75361008.54492025 68908527.47831225 128418084.80399913 69023718.51476242 96571913.05467373 71295074.98768385 47467851.47057238 46933229.15726745 33516417.370797306 31310190.462089688 63362089.09090471 46787879.18642005 70680890.63997681 33214745.485046465 51795509.86830451 68566540.92625238 44858587.95783332 69541173.40115601 45212434.041548274 66799610.070967816 41383298.081169605 59207396.799266025 76286320.88074797 29189862.88889777 50556506.160790466 63881820.01946127 57163884.5062528 46714412.57837817 62047531.179859236 15063596.185933694 36895731.18145359 17727028.026248585 14323762.98431427 127576416.46103445 45358753.215512976 61030607.36122085 61365901.00859868 63250438.89887569 37216260.26019313 48587541.63454036 37808044.37241298 37501651.39455194 37553297.3282217 62691516.82444763 76724063.23717536 149958181.7945753 65041109.42445055 51509172.11904029 67254147.50277784 7987682.278610849 65034093.90846074 50234932.47963913 58220423.283302784 52977729.99310024 86575567.81958008 69618968.23012957 47273371.544270545 63646118.471810676 45994718.0499559 21162724.316629127 30874546.40554894 60960432.6985135 70874014.71584764 70889869.66493282 66130583.733854964 68316780.63331117 66127906.57265859 59073870.893646315 32788268.283504847 31893523.14930226 33104019.51533072 84285170.3667065 51276470.35456203 61385925.50663549 63234873.26106528 88783562.73019934 29962245.511437595 61743299.46630147 64754523.68837205 63101093.349824116 63113569.394203715 27277385.66930606 65042504.31263663 64618182.367345944 69772756.26111053 61931946.35577623 66205976.719042465 48982920.12923037 51480646.436284654 62223515.085513525 46057737.97314139 99705539.23513214 72737528.80034404 13343508.399288304 54292562.28919308 33602394.06481412 65923847.44450638 59424006.32461946 65576355.5708293 43736704.90959606 66084561.3416609 63328818.18460795 86115616.91094063 86296829.04103392 39360173.884869546 44621535.46854372 38470775.56291693 33563467.842971355 42969304.93153477 53565660.206753 65764666.39258598 69680405.20176297 55939752.388915785 133357001.19220783 102042738.62114517 69534493.44035798 70951535.81325752 59052971.39562694 49954094.24934828 50541368.26102776 72952646.48359679 65988590.65738011 59319984.91284756 62983631.19920786 62514167.48010113 51106600.675225355 63354277.87438416 72033247.88869385 60742491.549822696 46530486.009355955 91652816.49302565 72030014.29530936 46771904.11441704 69107107.27199453 19221312.0613285 25874535.120049782 37359710.988153145 90797250.34490679 41202980.18899192 65528837.73467514 35566258.45489112 64480495.02417689 62114998.82452487 52803881.30693014 27075099.954574823 36076639.65551551 24512566.75936442 52939270.20280281 65293318.27249558 52998485.156173296 48338191.60252651 87896919.7754127 66457579.31303894 55361968.70344456 10771007.604348589 10779647.663156813 48236087.02641204 58110652.359945394 545.3559655644798 13340322.589185005 64572526.03891702 64600988.96560015 59059686.93116363 83279727.3420406 65584693.728686854 71245539.42886156 41290261.520067915 38970813.21540676 61957422.96838854 119899299.09694745 30475110.657759257 66289266.485683665 62073624.39584237 44157234.5397289 44212714.99098769 52334234.93375122 59163319.802039854 51866887.21866026 72325005.99950911 25