# vtk DataFile Version 2.0
Really cool data
ASCII
DATASET POLYDATA
POINTS 2100 float
10.0 25.0 0
9.749999999999998 2.5 0
15.25 2.5 0
15.0 12.5 0
20.0 12.5 0
19.75 2.5 0
25.25 2.5 0
25.0 20.0 0
13.421875 5.0 0
12.5 5.921875 0
11.578125 5.0 0
12.5 4.078125 0
23.421875 5.0 0
22.5 5.921875 0
21.578125 5.0 0
22.5 4.078125 0
13.421875 21.5 0
12.5 22.421875 0
11.578125 21.5 0
12.5 20.578125 0
23.421875 17.5 0
22.5 18.421875 0
21.578125 17.5 0
22.5 16.578125 0
12.5 15.5 0
20.0 15.5 0
20.0 14.5 0
12.5 14.5 0
9.995967741929068 24.63709677361624 0
9.99193548384352 24.27419354591668 0
9.987903225752747 23.91129031774724 0
9.983870967693909 23.54838709245178 0
9.979838709643776 23.1854838679398 0
9.975806451588815 22.82258064299319 0
9.971774193518987 22.45967741670884 0
9.967741935433088 22.0967741889779 0
9.963709677331826 21.73387095986437 0
9.959677419249761 21.37096773247854 0
9.955645161201263 21.00806450811359 0
9.951612903119845 20.64516128078604 0
9.94758064504518 20.28225805406609 0
9.943548386962053 19.9193548265848 0
9.93951612887461 19.55645159871496 0
9.935483870792845 19.19354837135627 0
9.93145161272193 18.83064514497369 0
9.927419354633525 18.46774191701725 0
9.92338709656502 18.10483869085204 0
9.91935483848279 17.74193546345097 0
9.915322580408823 17.37903223679417 0
9.911290322326463 17.01612900938176 0
9.907258064267786 16.65322578410088 0
9.903225806182238 16.29032255640144 0
9.899193548092457 15.92741932832128 0
9.89516129001441 15.56451610129687 0
9.89112903193036 15.20161287373247 0
9.887096773848848 14.83870964639635 0
9.88306451577868 14.47580642008116 0
9.879032257707456 14.11290319367111 0
9.874999999632388 13.7499999669152 0
9.87096774157541 13.38709674178694 0
9.866935483520326 13.02419351682927 0
9.862903225484896 12.66129029364055 0
9.858870967443991 12.29838706995923 0
9.854838709394688 11.93548384552203 0
9.85080645134599 11.57258062113923 0
9.84677419328547 11.2096773956924 0
9.842741935225352 10.84677417028196 0
9.838709677185804 10.48387094672252 0
9.834677419124317 10.12096772118856 0
9.830645161077069 9.758064496936328 0
9.82661290301319 9.39516127118734 0
9.82258064496042 9.032258046437814 0
9.818548386911868 8.669354822068383 0
9.814516128856654 8.30645159709885 0
9.810483870799494 7.943548371954425 0
9.806451612739686 7.580645146572026 0
9.802419354698465 7.217741922862086 0
9.798387096668439 6.85483870015975 0
9.794354838615694 6.491935475412687 0
9.790322580551589 6.129032249643185 0
9.786290322498939 5.766129024904508 0
9.78225806445883 5.4032258012946 0
9.778225806418291 5.040322577646533 0
9.774193548368817 4.677419353193986 0
9.770161290304422 4.314516127397968 0
9.766129032236005 3.951612901240819 0
9.762096774198463 3.588709677861742 0
9.758064516136995 3.225806452329888 0
9.75403225807409 2.862903226668307 0
10.11666666610577 2.5 0
10.48333333385953 2.5 0
10.85000000105818 2.5 0
11.21666666867316 2.5 0
11.58333333336224 2.5 0
11.95000000131839 2.5 0
12.31666666820478 2.5 0
12.68333333056934 2.5 0
13.0499999971377 2.5 0
13.41666666013254 2.5 0
13.78333332331241 2.5 0
14.14999998971309 2.5 0
14.51666665948202 2.5 0
14.88333332845008 2.499999999999999 0
15.24107142855263 2.857142857894746 0
15.23214285711795 3.214285715281784 0
15.22321428568154 3.571428572738167 0
15.21428571423432 3.928571430627341 0
15.20535714279942 4.285714288023047 0
15.19642857135995 4.642857145602022 0
15.18749999993289 5.000000002684433 0
15.17857142846358 5.357142861456524 0
15.16964285700679 5.714285719728339 0
15.16071428553705 6.071428578518076 0
15.15178571407274 6.428571437090492 0
15.14285714259704 6.785714296118296 0
15.13392857114501 7.142857154199406 0
15.12499999971972 7.500000011211233 0
15.11607142832301 7.857142867079478 0
15.1071428569088 8.21428572364799 0
15.09821428549156 8.571428580337546 0
15.0892857140937 8.928571436252073 0
15.08035714273443 9.285714290622575 0
15.07142857134667 9.642857146133258 0
15.06249999994795 10.000000002082 0
15.05357142854956 10.35714285801773 0
15.04464285713485 10.71428571460605 0
15.03571428570876 11.07142857164946 0
15.0267857143025 11.42857142790003 0
15.01785714286502 11.78571428539929 0
15.00892857142013 12.14285714319497 0
15.3571428591223 12.5 0
15.71428571719138 12.5 0
16.07142857423201 12.5 0
16.42857142974857 12.5 0
16.7857142846084 12.5 0
17.14285714112862 12.5 0
17.49999999772317 12.5 0
17.85714285297952 12.5 0
18.21428571083795 12.5 0
18.57142855939082 12.5 0
18.92857141386655 12.5 0
19.28571427430228 12.5 0
19.64285713574168 12.5 0
19.99107142854329 12.14285714173175 0
19.98214285710808 11.7857142843235 0
19.9732142856822 11.42857142728799 0
19.96428571423453 11.07142856938133 0
19.95535714282337 10.71428571293464 0
19.94642857136245 10.35714285449797 0
19.93749999989375 9.999999995749876 0
19.92857142839276 9.642857135710214 0
19.91964285692271 9.285714276908246 0
19.91071428546458 8.928571418583031 0
19.90178571404575 8.571428561829856 0
19.89285714258144 8.214285703257598 0
19.88392857110147 7.857142844058753 0
19.87499999962442 7.499999984976929 0
19.86607142823917 7.142857129566706 0
19.85714285687816 6.785714275126081 0
19.84821428547457 6.428571418982778 0
19.83928571407323 6.071428562929247 0
19.83035714264225 5.714285705690037 0
19.82142857123506 5.357142849402467 0
19.81249999981376 4.999999992550225 0
19.8035714284025 4.642857136099819 0
19.79464285702924 4.285714281169751 0
19.7857142856151 3.928571424604182 0
19.77678571422344 3.571428568937625 0
19.76785714281399 3.214285712559351 0
19.75892857141964 2.857142856785682 0
20.11666666646139 2.5 0
20.48333333599902 2.5 0
20.85000000037297 2.5 0
21.2166666666204 2.5 0
21.58333333661485 2.5 0
21.94999999805711 2.5 0
22.31666666291099 2.5 0
22.6833333246655 2.5 0
23.04999999031157 2.5 0
23.41666665336712 2.5 0
23.7833333158213 2.5 0
24.14999998189816 2.5 0
24.51666665379502 2.5 0
24.8833333260793 2.5 0
25.24479166666316 2.864583333578429 0
25.23958333332243 3.229166667430228 0
25.23437499998316 3.59375000117879 0
25.22916666664224 3.958333335042977 0
25.22395833329952 4.322916669033526 0
25.21874999995567 4.687500003103358 0
25.21354166662136 5.052083336505047 0
25.20833333328796 5.416666669842317 0
25.20312499994325 5.78125000397244 0
25.19791666660968 6.145833337322924 0
25.19270833326647 6.510416671347334 0
25.18749999992573 6.875000005198308 0
25.18229166657996 7.239583339402762 0
25.17708333322847 7.604166674006945 0
25.17187499988757 7.968750007869894 0
25.16666666654491 8.333333341856315 0
25.16145833320392 8.697916675725455 0
25.15624999986355 9.062500009551652 0
25.1510416665306 9.42708334285754 0
25.14583333317543 9.791666677719402 0
25.1406249998306 10.15625001185779 0
25.13541666647126 10.52083334701201 0
25.13020833313536 10.88541668052437 0
25.12499999979433 11.25000001439681 0
25.11979166647349 11.61458334685533 0
25.11458333315809 11.97916667893395 0
25.10937499982347 12.34375001235711 0
25.10416666650693 12.70833334451501 0
25.09895833318476 13.07291667706603 0
25.09374999985275 13.4375000103075 0
25.08854166652795 13.80208334304352 0
25.08333333324327 14.16666667297151 0
25.07812499994489 14.53125000385754 0
25.07291666664035 14.89583333517551 0
25.06770833336538 15.2604166644238 0
25.06250000006882 15.62499999518263 0
25.0572916667336 15.98958332864792 0
25.05208333341046 16.35416666126748 0
25.04687500010878 16.71874999238476 0
25.04166666678705 17.08333332490666 0
25.0364583334479 17.44791665864697 0
25.03125000011321 17.81249999207509 0
25.02604166678298 18.17708332519102 0
25.02083333345432 18.54166665819793 0
25.01562500008643 18.90624999395011 0
25.0104166667187 19.27083332969072 0
25.0052083333458 19.63541666579472 0
24.65909090697006 20.11363636434331 0
24.31818181387862 20.22727272870713 0
23.97727272112545 20.34090909295818 0
23.63636362933978 20.45454545688674 0
23.29545454074166 20.56818181975278 0
22.95454545175678 20.68181818274774 0
22.61363635870555 20.79545454709815 0
22.27272726938004 20.90909091020665 0
21.93181817642107 21.02272727452631 0
21.59090908415283 21.13636363861572 0
21.24999999070893 21.25000000309703 0
20.909090898365 21.36363636721167 0
20.5681818062032 21.4772727312656 0
20.22727271532826 21.59090909489058 0
19.88636362288735 21.70454545903755 0
19.54545453222531 21.81818182259157 0
19.20454544067146 21.93181818644285 0
18.86363634917439 22.0454545502752 0
18.52272726008306 22.15909091330565 0
18.18181816691119 22.27272727769627 0
17.84090907624678 22.38636364125107 0
17.49999998161302 22.500000006129 0
17.15909089129634 22.61363636956789 0
16.81818180107666 22.72727273297446 0
16.47727271035784 22.84090909654739 0
16.13636362113641 22.9545454596212 0
15.79545453028867 23.06818182323711 0
15.4545454400335 23.18181818665549 0
15.11363634812483 23.29545455062506 0
14.77272725866684 23.40909091377772 0
14.43181816866006 23.52272727711332 0
14.09090907805834 23.63636364064723 0
13.74999998745307 23.75000000418231 0
13.40909089754563 23.86363636748479 0
13.06818180839043 23.97727273053652 0
12.72727271853859 24.09090909382047 0
12.38636362812021 24.20454545729326 0
12.04545453791708 24.31818182069431 0
11.70454544876188 24.43181818374604 0
11.36363635991656 24.54545454669448 0
11.02272727049761 24.65909090983413 0
10.68181818161208 24.77272727279597 0
10.34090909059876 24.88636363646708 0
13.29836716804519 5.460937501850858 0
12.96093749805554 5.798367170236416 0
12.03906249886036 5.798367168455805 0
11.70163282969542 5.460937497937477 0
11.70163283195481 4.539062498149142 0
12.03906250194446 4.201632829763584 0
12.96093750113964 4.201632831544195 0
13.29836717030458 4.539062502062523 0
23.29836716853658 5.460937500999747 0
22.96093749805866 5.798367170234614 0
22.03906249972091 5.798367168952648 0
21.70163282978201 5.460937498087458 0
21.70163283146342 4.539062499000253 0
22.03906250194134 4.201632829765386 0
22.96093750027909 4.201632831047352 0
23.29836717021799 4.539062501912542 0
13.29836716891448 21.96093750034519 0
12.96093749723044 22.29836717071278 0
12.03906249968323 22.29836716893089 0
[...]
CELL_DATA 3874
SCALARS Von_Mises float 1
LOOKUP_TABLE default
7883732.992846978 185955309.90228564 43909912.213434055 36698914.15802992 38457927.07239291 38033941.265707724 7913450.472726907 44348599.414917596 32833963.810397428 69477953.94583361 58601534.725146964 126238533.02971481 39927073.25441204 47830481.23568699 46553197.8919279 39534425.66726593 47311055.08863791 36396179.33387677 1474385.2867307256 46305120.24432236 47002206.75469547 44859036.36699677 37416586.87142205 47103092.921206616 45035406.62914951 44172671.7741293 52148616.35129462 44854362.81069747 20319227.91070786 38005240.33283111 45715606.516048856 2678438.122084863 46935974.683437936 44375484.00557864 19902208.53221488 44469075.38617347 33186508.98616621 29330304.72412841 46304174.1960014 46910878.11333122 45891751.50667828 42449880.26182103 39873240.09940237 32286936.12029012 23648334.780919846 34056910.96971512 45536239.21513474 46754305.591210276 46616999.511622116 48227675.61988345 47523725.80390588 7265534.0638145255 56448344.64624945 655659.7441881105 655918.7759662027 63522128.43828744 45591324.21322095 46129064.67208812 46533772.17434543 44676481.71917501 43725053.63512542 14352030.598054284 24192847.978200227 39541676.97314464 7263494.841414014 37766017.74128863 45509032.02438938 17924041.61124803 17918420.73213479 44004594.84005999 48094289.790280215 47030927.29589669 16119661.624310933 14540409.77389601 29060482.028769173 6892035.152892285 51847997.9608295 25421709.912389178 51288624.37623687 42408292.407484375 44468988.27230016 49262370.74422811 48984870.4952589 27121494.842831485 46118607.03648293 46696251.91503593 43194704.983542845 39902347.72061106 22933811.04606531 53230819.79980474 28146088.190533422 46861891.0049116 46154380.62906331 49303438.28891828 41541410.26148722 45667370.39291345 52958890.95946984 47769178.53799193 7357103.619978203 42135351.09148103 44124091.44032587 47274868.728984915 44968596.70838128 56113217.04844689 46750088.34310798 9486999.509681486 75501827.51506928 58847647.569561094 47028423.98811137 6804694.869619178 52282149.11622222 40934621.85080028 33855790.423884615 46192511.28192396 35200859.508679435 33606187.78742886 46404701.61780334 4998094.667512087 12685675.40787682 42666319.82301696 44338521.165822916 7383289.435715759 7438064.489438753 36532682.44114139 31766953.359395433 46338573.10402426 47198962.74943554 46475053.5337999 46503302.2926324 8655984.660495654 15439272.062584728 16126219.316230277 37310386.56111738 48383803.19533598 66494334.384151 58689456.340813346 44113750.413700424 47700352.40476033 12059912.866469445 45003428.904843576 8635182.910555612 52677098.1924112 37178501.21290681 24040031.21144995 55498241.10437862 44790830.15938254 11924779.828915114 31493399.79731188 53653170.652944624 44630685.086865395 63608200.28772244 55173787.68977231 44844371.52592711 46603391.85199843 47374124.15720677 7391582.859900202 22374866.31141944 16235213.640969742 42050973.617282555 39289240.438197955 18377147.279623117 18343633.403314516 8843364.347898355 8826386.2533644 44021706.07454519 42670574.07241266 43566008.17249429 16386433.099424042 50686047.19510343 48599481.82800021 74680279.63497344 48230080.82915584 48263601.39178557 68729182.33207087 47900842.23351058 46823627.86231742 2614824.663142509 2615882.852622091 5814393.826697071 24981187.054482423 45850703.09408633 81196117.93776743 34059932.75585968 39795121.59584499 6824145.0507519785 42236137.70544001 31701831.17898509 30556502.00648862 12159510.091229184 46416879.30105704 40322365.21759374 61509269.99609958 36397864.841069706 30662882.09311228 28916573.193023186 90154033.8251021 46331844.670944795 13262069.800452625 13277157.301520387 42100790.57872894 47987761.55752579 44469760.066443436 45092748.39967602 26510561.420010675 48491869.145169765 30031573.432315446 54434655.60588637 13092055.79507394 46771422.389915064 44895282.83111837 240422414.1915945 39163391.948379196 46975112.11382561 13008193.992349222 40605125.993480965 22583564.17917187 22570893.3572175 60404802.36076016 30061239.36150128 33189811.658433862 37769720.01692929 48392445.76610947 46096885.40413835 48965933.29741245 67858403.2036878 38389556.41229495 34426923.081586644 45134385.835010864 17862660.12745837 47532554.022002146 49421927.51932141 25258778.67357828 49520114.639556184 2399003.359102059 15086560.129319388 12135306.96224673 34177699.47687025 24402083.357931435 36115719.69300854 47052747.54310668 40764136.91305359 54592570.50746589 51395528.08865248 49708536.93331421 32757754.4893989 41394631.05928231 46128370.626274765 50088908.286508255 44835073.54942758 50799723.91733293 22490812.111560244 53395072.67332628 45466923.717687584 15141025.716879278 47203494.85003509 51859582.22863755 48151289.223194264 27855855.137056146 7851843.20090624 44238891.85704332 41428511.48600725 51108318.28162571 44037960.76066198 13766656.95068088 27163616.597868636 44211268.81625758 43433290.63571623 60766018.48289817 7767365.76297223 46813927.45159502 45196359.20918587 46888016.21012097 47903918.03682722 23387596.319931954 52161781.433477886 12966735.644805295 12960495.269698992 42838442.91053553 50820969.774299696 45885781.046572305 37459092.31761157 45697327.77565593 45510757.77436846 27142507.090552844 50366924.78796989 46551698.097927816 53263136.19218669 48632258.39005414 61926730.16388544 41693792.37134478 49076226.18059273 58678067.78405902 37197030.24663059 39549103.11345216 42704935.421827756 40452111.33774555 18009038.692774918 34911362.425249554 6746913.474189491 38625445.560138345 58649285.35961553 12470286.909683285 13838086.58656951 16118484.108362477 50197939.317013994 45093115.21937498 45020408.6902105 47180237.02139422 17807716.539210483 8485986.371902797 49184097.73991288 20187959.64441442 49973773.15434379 33440770.800369892 33460407.621573873 8455172.133359864 12252813.827010415 22115028.474387564 23613613.810013697 25328408.968847293 12083075.120465018 45945912.098432444 48317982.18020608 2788469.2787327585 52365272.719372004 40432850.08535969 96718413.75871745 42417837.46028998 6739127.0001236955 39900563.77491233 11974613.42792631 47492211.86145344 51360094.7097106 46012186.978161916 6018047.085408932 34080459.09283164 8705264.337424926 8687407.346222756 49565326.21368315 34986858.778551005 49304037.67448877 46538275.21712856 4194215.7939180103 4196378.685729345 32208172.387079902 19381262.3300682 75149273.04971667 59043186.97042828 32572869.49324074 47641921.48808463 25276394.384886157 45506879.19287445 61743193.52635565 47409197.31912185 55909721.76120629 48571441.54679275 45525436.47818122 49301935.806930766 47470690.541941084 47011594.629575744 4857012.440958864 4826829.6243099235 61655496.97245435 38721217.90262362 5978647.149164099 44753582.097528115 53578464.71990401 47910434.81937612 36128820.0410482 14175954.851106184 42258743.258964576 28933565.046538226 28919927.595346835 46566421.46313023 40613732.85791995 64237953.69570359 43376469.37009012 52802268.846539706 121140186.28658079 47843070.196176596 55607054.22315947 50069176.99746399 29865300.691711377 43814861.380750865 35732023.83738422 45927783.11927663 52506851.09010654 45165064.32082358 10162199.604307136 33396125.892866153 42585343.807212286 46370310.13094477 61722855.20342555 44537843.721633315 34753315.54962869 44992106.89773695 71378672.99343877 48101653.227094315 33591912.53603395 39323604.94664903 51475351.605859324 47047616.331374906 45462091.947428495 40800984.03492489 48631071.54097182 23488806.828198113 11292071.853514189 44595124.82443063 553536.863640641 65544249.66155115 44463541.94472279 88466694.19506723 35117338.25878761 48255620.81534353 23344330.403363496 17160130.318990808 46756536.39818468 17310145.88196384 10971685.279763611 25417547.469134886 39201167.40787975 33569105.58462264 42366813.71881091 33646364.52492252 34636507.84459206 46860433.03956853 48584986.46097441 41856547.432329364 13326151.516422087 48697174.42583018 5434524.165142238 23418207.0674933 44200739.81311202 41712630.63724201 38412488.97677224 14044546.557987899 78915712.75405419 13173635.27667906 46200331.58176811 57360455.59330958 32489984.37214654 36055620.92692942 43918101.78577365 56768422.824189715 42006463.99305277 41093150.41018931 19304896.827021606 49635715.87987588 21046495.237655986 29974415.065969873 42754209.21725923 98896799.34229429 29663645.271383442 17368268.131994452 33934208.97346279 52822154.1223459 905750.5418851322 46463901.28075739 24033439.285568077 36386576.52972017 36076796.03378499 43719814.55701989 33850859.35182872 38721785.9275955 2473151.709791121 41081918.239895895 11199488.95777631 23836259.329223122 47531222.37381241 44415087.87708702 36812526.87663446 18097855.059283312 45342612.12880836 51320453.565616995 27708100.822087046 36530680.2598086 43056881.18912357 29488155.5463344 19516272.821866676 19529443.02865236 45164540.37893753 3338817.8692362225 49754719.09310272 18742328.930863462 19672459.957565445 63498906.02049947 31009873.10519734 24884574.71428319 45562545.581687465 54652908.14958323 21258159.845944233 44565619.975915276 120031608.85942082 48016007.647790626 44332514.825200826 16549300.619573679 16549300.619573679 8385349.163360915 44747752.935709454 65739747.80331671 48371408.83661824 19836544.474686615 45656734.54653629 22788983.742765687 12179558.816632008 38747130.38741717 46661449.02251855 44631043.63492126 48033271.74543694 31870187.010724545 5197216.950413014 38974275.64144247 47457419.61534386 45426447.01352867 26993227.572301496 43955860.21466756 26722040.986496445 3521395.9929806325 47968066.179039836 44396960.99114264 43185370.5531961 40095664.83467092 44302028.814566344 28514344.47677495 48499079.88610557 66571709.86748552 47400614.34216011 16779740.29838886 2245241.842442683 38760444.24823324 8413354.668745177 48595120.154151835 7395665.735034735 44345387.91142624 45852537.44063671 46447653.924856216 57500876.41651906 40563808.169333905 30479971.171098743 36630307.40373305 47085104.69587049 49494145.929863855 57592810.94492429 27100778.767785955 27163471.655764405 27565078.57740863 40891040.65889201 52197592.604920715 47254924.97007505 51368792.03053643 83475835.56536366 60692922.927303754 38757444.18291917 42546303.70606525 26456941.842200298 26505338.47434539 45805673.80537996 6181911.7111411365 45536409.744312234 50984425.69420123 22780057.11833031 16628210.597559124 7975376.344106612 43981296.02553002 39390238.71986072 23112008.178118143 8499797.050600173 60697630.36047877 44217735.557644576 47309499.03480098 49905603.84193851 48114663.22285172 37373628.262186825 37451967.190732054 8946146.43983005 19266081.007296853 44899791.34815848 46888812.50351047 46646505.59386615 44127623.32734907 43929198.64891306 45660588.92809742 48396887.00661107 45806588.24031368 50110272.38542726 26266329.75629552 45611962.30750079 47800682.94641299 40423860.86164554 44613696.66083106 46010392.843346156 58705872.6376844 56622338.22639298 53092971.889918365 1431557.8244918995 47736042.74612006 21109525.69848562 45558985.304859884 45854651.511761114 55060663.40131998 54244523.6355654 10640793.501357982 53814365.62334672 35966175.115289114 45179368.39047854 35484612.90461504 45625238.15916444 42378522.42645324 35394906.13645286 47012409.98068171 43684148.844312824 32027713.41867769 91002479.82220355 44202642.996806934 45269651.20467652 29332919.563541967 29311350.005859174 4591557.065448704 46440534.892453 5877950.0733724935 25716119.47337455 9496391.260555228 59303618.19026955 89900822.72668119 50034520.98720574 62877503.024472006 6307117.900565456 44783869.006021015 29363846.55270968 29335871.99920875 44670005.81837069 38167208.44303569 48548554.96393595 14913899.598581385 28347012.068285786 114733008.62640838 64046514.33590132 38346780.2766969 38798750.101397805 20073841.98701818 82326178.61015734 13493413.090498112 53023810.72482613 14711419.980039682 44148951.96905432 40514058.70527887 34592216.9123667 27884206.924474243 47223417.388259135 17799769.33935828 4602095.821323339 47050346.48327804 44956097.397057176 13800601.171543524 30745763.17273132 45996823.77630969 24552644.07428183 47760845.327892214 84689998.56820905 55312423.63596372 25717829.030532885 41673501.10088726 3037854.4823515024 71602340.16168505 29796459.255373746 43094639.58545453 11297034.055685189 41189234.0602606 10476350.605685998 37510748.707233235 6480916.601241496 42503976.833755404 9391193.032269806 52349049.7525337 101037835.64851332 42486324.6519916 90581706.21150881 35479045.45403952 42733505.322579645 55208742.69458077 12685835.545469316 19981283.626501437 41760511.59199425 46083375.70980041 23761608.821050838 82239541.69164729 40822951.05196385 22282665.650712386 63501593.269865945 61144941.74040135 41431527.34530249 87088235.19745907 87191581.79984759 784188.669441494 38517811.8173127 31284295.154319514 31275361.910147518 83807825.11966887 15627993.7079284 42893973.165854245 47226616.14840096 66553169.35395189 42333788.71645606 46099248.685598 27897497.281916108 44628005.501315735 54131307.665781274 42483959.84732676 39072016.353581816 15582175.427314749 41149086.73454935 44446171.592415385 46435445.972555906 48052678.49474317 47845757.95541021 44221893.89877103 35523789.75257881 24131796.62372013 50273808.738013044 47321670.861416616 6313504.228077621 44933418.98720545 48540056.54126318 35768998.11225161 26720372.102309365 46117038.42765007 45248543.22415751 28238192.412112385 28214582.095894028 40173197.689434245 12117627.55863075 25449794.030995335 52739979.473044105 42727898.778780065 35002195.33044584 27827016.32207247 66922921.03760329 44931500.42953329 10912206.673063241 55240092.243309304 218927077.48586372 58873020.26565351 45313628.93995498 29819078.733110737 59012379.39442593 7343750.052167499 24392107.35334987 53907886.49694118 5530169.459594782 26147898.63169762 45876271.06540564 47015153.21396797 8138121.616444306 6209535.926117322 43560939.7275105 44830041.629318304 52359611.03762161 57959716.083291054 44053295.992479965 57862452.55809098 43556878.61952839 7528652.903549552 45000423.73861641 31889196.019990373 84660102.84323429 34529466.97707351 44793225.168135 22455083.07687828 48797731.42840937 31691862.628384046 49768840.402950816 39948794.120834544 14246026.842161749 14302486.725463688 83728295.53522266 45648192.26208159 48182781.94423185 68022994.69006391 5884012.944540394 9965107.516392162 58161531.78582718 28839093.52686643 48478607.99124297 39802481.32337094 29313636.452368677 62843220.757781886 48287040.79586274 69354539.61335778 39261375.30282035 37100167.12234714 5927392.560530085 98113337.26216325 48145107.500152834 9778954.536196265 9805393.184264159 38857802.90906966 44523107.52126847 28150725.181043807 29223504.781401854 22893414.55000736 5142462.512299275 51271647.97248042 40800780.220422134 57258623.66603037 20191622.77824579 35051605.19900574 10886750.344073705 42437345.08893994 47085496.88038102 9942921.85679048 48578542.57294063 45406172.11802552 69275715.52700835 39733696.961911604 49814663.99658659 50690789.26119377 38740872.24421484 15052853.002393346 56200788.31035221 5853537.965883969 49319865.59227166 39570461.27843526 9893743.38645195 49147087.923558116 32784702.47999647 21295535.659283914 35550026.07820221 44805166.001502104 48688531.838744394 8802409.861153604 45943034.75558576 72189200.27836263 32947058.079236537 43006509.788364135 48188158.56948781 42773633.598193936 48921135.061757855 42898236.06994373 21694031.455363188 40528517.51093471 48876832.959464945 36915055.19418586 84818519.15128228 46251401.394461 38768861.86040287 34483770.286643766 42886015.048736304 44958957.6317148 42097648.71112662 47029662.42358314 44469524.8632705 1655979.8348899893 45014927.48357948 11076061.580035472 43105669.688968524 69486018.6697631 91822397.99439672 54279890.32219539 46631928.6160284 45898104.55747499 41653614.74616847 49159913.06665932 47835974.18258661 31881717.419471644 44371531.201937295 32014403.041505698 50511559.37895979 47700335.51860986 69975779.25259502 45683476.496966176 45729906.17391571 41353917.85649566 14772248.608946454 77340905.83396125 25885439.148073707 8611516.774900183 22169272.304452743 44421085.720562674 45634576.27592229 50582546.84964547 44882142.27434986 20421272.84525577 2210315.648258884 2211754.2110304907 45198147.75128582 44583063.45833963 49730190.27459271 15360970.571055971 32155183.720321 37213078.50585251 35199784.39872801 97422641.93196036 56053806.07994858 12339698.36132759 39733356.76011336 45233901.98238921 1345910.422367168 54998898.87463312 54928154.695953034 2210520.970358669 9168317.497204702 63270023.06942666 31194025.275215764 17581139.875482712 20653658.365424402 32366454.046077184 45324185.12809445 48365959.57407775 81832843.08571713 33786327.12788717 8978856.637906328 44501872.286735214 33059215.195062358 48348730.329392366 28025959.503007077 23024259.38253187 27940496.652999 47907493.338393845 4523624.882423314 44518447.11014261 12062241.861720085 45628221.468317255 46286414.32446566 51073261.562360615 13242248.204819556 17774778.450684294 23168046.18569256 46897096.85545173 7414344.686371036 7401806.779663946 46457009.10574475 44832286.06622045 44575846.10398474 43347851.42684242 41528309.223238796 43335025.26925825 17351083.102688495 4102086.094820177 50645499.39618341 47125782.34217192 11547250.722584935 48243856.05792828 55000365.643126115 40989578.484333515 37324478.66220946 47762755.41540707 47727411.10506281 41116524.07966421 44632063.33314202 52643158.264255464 65519506.73550711 44786808.2170969 22734640.591387857 29250175.57839867 40939757.14375207 62991981.42991701 96102451.14354044 46524715.77377644 56593555.702452555 52228977.09327967 52776134.85203546 40172163.28282421 45812581.23076164 48227273.05836631 61305587.937575385 44339716.44859667 37998267.40335359 23213912.297442872 50047002.54813211 13034586.865502015 23499056.037066344 23503073.98247267 39521440.58862573 42873701.723345906 46120076.46797863 49172901.82663864 8167866.764238596 17817325.646986708 40182828.15587887 19364440.901271824 51303214.07029185 47278926.14298614 35438660.28591794 46574227.7819497 96951140.00138457 15936267.802550463 19851479.428475514 40102018.28679226 48757039.85641515 44656561.12425537 42448427.96954562 47783966.97579977 13862057.407597363 12590151.081629554 15318683.710290913 19216407.707201432 35470322.11081988 49915262.550328225 48500534.135666855 72121449.02793805 40801308.768290505 1518640.3505529272 49448890.966861635 19651259.294021297 35613947.821433045 31701745.624870267 24961630.082662918 44343086.9238243 9443842.84830191 35930452.60189222 59951779.45686147 41866725.04157002 30399228.57582339 37807561.58115458 45023194.26407747 14038649.0904198 50309474.7344577 48466603.54354205 17548741.227464966 39103591.81156995 41155683.75882473 45971355.00660021 39190900.42905977 54755961.7006996 44749445.08504028 18510959.252365746 42973795.311832935 44662728.28205217 17536312.63483727 131417065.81456429 48874139.89936106 25581901.274878483 9708302.719488036 48210564.657829046 72078603.93196747 35216102.59956938 42571586.67392966 46951420.153475344 45807887.03560364 14156900.16317904 14185745.287982777 2745292.0361565095 52273410.4409202 29749729.39378303 24811815.14019202 6527953.594883434 40435935.0141162 47534776.07572734 47947328.98856982 53540484.14395515 37034424.80375933 4582363.759060529 47513931.094574 5698570.554468644 48096760.914773695 87772818.38376914 73869785.60525183 9337177.885917889 12171087.7801334 43219022.59210314 83772821.05654483 47221052.4307479 38777621.630535394 43146176.78934319 6027480.019595427 6022954.24632125 45384494.36110743 56457055.3651773 45482504.21175125 13327314.012217266 60703126.64077321 13395762.630022345 19727321.274031576 81677028.50928304 35369787.69671017 45619281.08448384 48185276.01214275 48235359.12685219 17597135.469435085 28178166.853756633 38406917.04672557 75085.55153644743 33676065.89942319 51385537.00034187 47627961.739264496 28760842.600882404 31128528.487961605 28798208.203864146 21414548.714519165 46586009.84902668 91191489.13921972 73381936.974