# vtk DataFile Version 2.0
Really cool data
ASCII
DATASET POLYDATA
POINTS 2068 float
10.0 25.0 0
10.5 2.5 0
14.5 2.5 0
15.0 12.5 0
20.0 12.5 0
20.5 2.5 0
24.5 2.5 0
25.0 20.0 0
13.015625 5.0 0
12.5 5.515625 0
11.984375 5.0 0
12.5 4.484375 0
23.015625 5.0 0
22.5 5.515625 0
21.984375 5.0 0
22.5 4.484375 0
13.015625 21.5 0
12.5 22.015625 0
11.984375 21.5 0
12.5 20.984375 0
23.015625 17.5 0
22.5 18.015625 0
21.984375 17.5 0
22.5 16.984375 0
12.5 15.5 0
20.0 15.5 0
20.0 14.5 0
12.5 14.5 0
10.00806451614194 24.63709677361278 0
10.01612903231258 24.27419354593386 0
10.0241935484938 23.91129031777878 0
10.03225806461129 23.54838709249173 0
10.04032258071191 23.18548386796397 0
10.04838709682194 22.82258064301263 0
10.05645161296179 22.45967741671925 0
10.06451612913326 22.09677418900329 0
10.07258064533511 21.73387095991988 0
10.08064516149915 21.37096773253857 0
10.08870967759623 21.0080645081696 0
10.09677419375892 20.64516128084849 0
10.10483870990822 20.28225805413003 0
10.11290322607429 19.91935482665694 0
10.12096774224832 19.55645159882557 0
10.12903225841202 19.193548371459 0
10.13709677455406 18.83064514506724 0
10.14516129073117 18.46774191709723 0
10.15322580686834 18.10483869092457 0
10.16129032303272 17.74193546352748 0
10.1693548391806 17.37903223687297 0
10.17741935534539 17.01612900945749 0
10.18548387146244 16.65322578418995 0
10.19354838763403 16.2903225564684 0
10.20161290381374 15.92741932838155 0
10.20967741997008 15.56451610134622 0
10.21774193613836 15.20161287377394 0
10.22580645230157 14.83870964642906 0
10.23387096844209 14.47580642010597 0
10.24193548458432 14.11290319370539 0
10.25000000073421 13.74999996696068 0
10.25806451684794 13.38709674184244 0
10.26612903295814 13.02419351688371 0
10.27419354902925 12.66129029368375 0
10.28225806511086 12.29838707001138 0
10.29032258120948 11.93548384557348 0
10.29838709730668 11.57258062119947 0
10.30645161342799 11.20967739574034 0
10.31451612954823 10.8467741703298 0
10.32258064562724 10.48387094677422 0
10.33064516174957 10.12096772126913 0
10.33870967784367 9.758064497034947 0
10.34677419397089 9.395161271309828 0
10.35483871007663 9.032258046551387 0
10.36290322617298 8.669354822215917 0
10.37096774228375 8.306451597231394 0
10.37903225839794 7.943548372092563 0
10.38709677451733 7.580645146720181 0
10.39516129059989 7.217741923004883 0
10.40322580666075 6.854838700266257 0
10.41129032276591 6.491935475534158 0
10.41935483889413 6.129032249764203 0
10.42741935499985 5.766129025006942 0
10.43548387108066 5.403225801370201 0
10.44354838716179 5.040322577719254 0
10.45161290326106 4.677419353252181 0
10.45967741938996 4.314516127451607 0
10.46774193552708 3.951612901281566 0
10.47580645160294 3.588709677867938 0
10.4838709677258 3.225806452339046 0
10.49193548385171 2.862903226672901 0
10.86363636397148 2.5 0
11.22727272776948 2.5 0
11.59090908917042 2.5 0
11.95454545068175 2.5 0
12.31818181403819 2.5 0
12.68181817915301 2.5 0
13.04545454194173 2.5 0
13.4090908986116 2.5 0
13.77272726213363 2.499999999999999 0
14.13636363138024 2.5 0
14.51785714288412 2.857142857682448 0
14.53571428574426 3.214285714885328 0
14.55357142862196 3.571428572439232 0
14.57142857151165 3.928571430232919 0
14.58928571437537 4.285714287507488 0
14.60714285724751 4.642857144950152 0
14.62500000009455 5.000000001891001 0
14.642857143032 5.357142860640115 0
14.66071428594258 5.714285718851571 0
14.67857142887942 6.071428577588326 0
14.69642857180077 6.428571436015462 0
14.71428571474886 6.785714294977167 0
14.73214285764917 7.142857152983446 0
14.7500000004943 7.500000009885979 0
14.76785714328319 7.857142865663754 0
14.78571428612831 8.214285722566284 0
14.80357142896074 8.571428579214821 0
14.82142857173971 8.928571434794218 0
14.83928571444931 9.285714288986206 0
14.8571428572153 9.642857144306044 0
14.87500000002409 10.00000000048181 0
14.89285714286733 10.35714285734665 0
14.91071428569972 10.71428571399456 0
14.9285714285493 11.07142857098609 0
14.94642857139116 11.42857142782311 0
14.96428571424643 11.78571428492866 0
14.98214285713977 12.14285714279527 0
15.3571428591223 12.5 0
15.71428571719138 12.5 0
16.07142857423201 12.5 0
16.42857142974857 12.5 0
16.7857142846084 12.5 0
17.14285714112862 12.5 0
17.49999999772317 12.5 0
17.85714285297952 12.5 0
18.21428571083795 12.5 0
18.57142855939082 12.5 0
18.92857141386655 12.5 0
19.28571427430228 12.5 0
19.64285713574168 12.5 0
20.01785714292029 12.14285714159426 0
20.03571428577939 11.78571428441216 0
20.05357142862984 11.4285714274031 0
20.07142857152504 11.07142856949918 0
20.08928571434997 10.71428571300059 0
20.10714285726139 10.35714285477221 0
20.12500000019564 9.999999996087139 0
20.14285714320795 9.642857135840998 0
20.16071428614276 9.285714277144802 0
20.17857142904537 8.928571419092558 0
20.19642857186783 8.571428562643403 0
20.21428571479022 8.214285704195643 0
20.2321428577479 7.857142845042126 0
20.25000000069735 7.499999986052996 0
20.26785714347055 7.142857130588933 0
20.28571428619271 6.785714276145805 0
20.30357142900126 6.428571419974752 0
20.32142857178615 6.071428564277086 0
20.33928571464426 5.71428570711476 0
20.35714285745924 5.357142850815163 0
20.37500000029276 4.999999994144766 0
20.39285714311046 4.642857137790787 0
20.410714285854 4.285714282920003 0
20.428571428706 3.928571425880045 0
20.44642857148773 3.571428570245412 0
20.46428571431238 3.214285713752382 0
20.48214285711565 2.857142857687005 0
20.86363636516213 2.5 0
21.22727272581398 2.5 0
21.59090909243092 2.5 0
21.95454545450997 2.5 0
22.31818181891514 2.5 0
22.68181818017414 2.5 0
23.04545453949341 2.5 0
23.40909089990082 2.5 0
23.77272726283935 2.5 0
24.13636362860863 2.5 0
24.51041666667252 2.864583333538364 0
24.52083333335455 3.229166667409358 0
24.53125000003504 3.593750001226702 0
24.54166666672229 3.958333335280106 0
24.55208333340738 4.3229166692584 0
24.56250000009479 4.687500003317582 0
24.57291666676292 5.052083336702424 0
24.58333333342993 5.416666670047649 0
24.59375000011929 5.781250004175338 0
24.60416666678541 6.145833337489197 0
24.6145833334717 6.510416671509586 0
24.62500000015173 6.875000005310423 0
24.63541666684382 7.239583339533857 0
24.64583333354729 7.604166674155124 0
24.65625000022954 7.968750008033958 0
24.66666666691629 8.33333334207003 0
24.67708333359532 8.697916675836199 0
24.68750000028001 9.062500009800464 0
24.697916666944 9.427083343040039 0
24.70833333365369 9.79166667787921 0
24.71875000035885 10.1562500125599 0
24.72916666707987 10.52083334779526 0
24.73958333375135 10.88541668129731 0
24.75000000042991 11.25000001504697 0
24.7604166670681 11.61458334738357 0
24.77083333369809 11.97916667943294 0
24.78125000036938 12.34375001292839 0
24.79166666700398 12.70833334513953 0
24.80208333364604 13.0729166776115 0
24.81250000030942 13.43750001082962 0
24.822916666971 13.802083343985 0
24.83333333355412 14.16666667439433 0
24.84375000015083 14.53125000527908 0
24.85416666675838 14.8958333365431 0
24.86458333330886 15.2604166658101 0
24.87499999988007 15.62499999580261 0
24.88541666655004 15.98958332925141 0
24.89583333319863 16.35416666195201 0
24.90624999980522 16.7187499931826 0
24.91666666644808 17.08333332568263 0
24.92708333312806 17.44791665948182 0
24.93749999980001 17.81249999300037 0
24.94791666645933 18.17708332607652 0
24.95833333311969 18.54166665918899 0
24.96874999985664 18.9062499949823 0
24.97916666655788 19.27083332952599 0
24.98958333330658 19.63541666573034 0
24.65909090697006 20.11363636434331 0
24.31818181387862 20.22727272870713 0
23.97727272112545 20.34090909295818 0
23.63636362933978 20.45454545688674 0
23.29545454074166 20.56818181975278 0
22.95454545175678 20.68181818274774 0
22.61363635870555 20.79545454709815 0
22.27272726938004 20.90909091020665 0
21.93181817642107 21.02272727452631 0
21.59090908415283 21.13636363861572 0
21.24999999070893 21.25000000309703 0
20.909090898365 21.36363636721167 0
20.5681818062032 21.4772727312656 0
20.22727271532826 21.59090909489058 0
19.88636362288735 21.70454545903755 0
19.54545453222531 21.81818182259157 0
19.20454544067146 21.93181818644285 0
18.86363634917439 22.0454545502752 0
18.52272726008306 22.15909091330565 0
18.18181816691119 22.27272727769627 0
17.84090907624678 22.38636364125107 0
17.49999998161302 22.500000006129 0
17.15909089129634 22.61363636956789 0
16.81818180107666 22.72727273297446 0
16.47727271035784 22.84090909654739 0
16.13636362113641 22.9545454596212 0
15.79545453028867 23.06818182323711 0
15.4545454400335 23.18181818665549 0
15.11363634812483 23.29545455062506 0
14.77272725866684 23.40909091377772 0
14.43181816866006 23.52272727711332 0
14.09090907805834 23.63636364064723 0
13.74999998745307 23.75000000418231 0
13.40909089754563 23.86363636748479 0
13.06818180839043 23.97727273053652 0
12.72727271853859 24.09090909382047 0
12.38636362812021 24.20454545729326 0
12.04545453791708 24.31818182069431 0
11.70454544876188 24.43181818374604 0
11.36363635991656 24.54545454669448 0
11.02272727049761 24.65909090983413 0
10.68181818161208 24.77272727279597 0
10.34090909059876 24.88636363646708 0
12.86460193220061 5.364601935898014 0
12.13539806564783 5.364601933746452 0
12.13539806779939 4.635398064101986 0
12.86460193435217 4.635398066253548 0
22.86460193304701 5.364601935051613 0
22.13539806478868 5.364601932887309 0
22.13539806695299 4.635398064948387 0
22.86460193521132 4.635398067112691 0
12.86460193226812 21.86460193583051 0
12.13539806566697 21.86460193376559 0
12.13539806773188 21.13539806416949 0
12.86460193433303 21.13539806623441 0
22.86460193292542 17.86460193517321 0
22.13539806482679 17.86460193292542 0
22.13539806707458 17.13539806482679 0
22.86460193517321 17.13539806707458 0
13.0357142863834 15.5 0
13.57142857334916 15.5 0
14.10714285783675 15.5 0
14.64285714470339 15.5 0
15.17857143070267 15.5 0
15.71428571720997 15.5 0
16.25000000702564 15.5 0
16.78571428904744 15.5 0
17.32142857412979 15.5 0
17.8571428511085 15.5 0
18.39285713616606 15.5 0
18.92857142211578 15.5 0
19.46428571101452 15.5 0
[...]
CELL_DATA 3834
SCALARS Von_Mises float 1
LOOKUP_TABLE default
34489957.34337333 38019317.451304324 30618935.105162058 34366389.46848178 10123547.386261953 5321492.545720063 38034945.36397772 41188885.25234764 8581480.072838064 5327576.714166258 28026570.217859566 3326334.1546628047 46878458.5307213 4913793.131968611 26071737.600879584 39272157.34941742 32605207.373177502 35994903.91546281 43328731.38332104 43281102.0341162 33747575.8359785 34168126.527745634 37224473.527569816 18640954.75741599 10466762.029690705 36547629.06851978 24055611.90965683 18876823.60063598 38204830.7020716 23514341.33561088 32820311.286592018 43755390.37119746 31807751.238128234 37936472.14895242 463919.1672516321 26823802.29637494 37375817.849364616 31858300.19520568 25129001.432389773 22640946.06266271 17681803.325501595 32907585.548729315 40380282.70197741 20242707.75143671 37857349.432202995 6037745.472427504 9791028.8607789 12044043.3167254 37472789.81179064 40486526.3039756 9684361.139514908 33509786.630094692 2102347.5536462483 9493045.476714766 38293692.43382055 37395987.8678705 33015187.76541258 11191560.816713495 13961014.330310907 36420636.79880357 15193727.70426393 3852756.091836388 20683705.05776783 10264156.512371514 9203445.524008023 5212981.731620995 20178985.079706833 35930692.773630396 33534544.08713186 635312.3613835903 30956122.587190196 13485730.723356782 46547929.04339831 27786785.093563966 30487461.561846815 30151847.8576917 31849808.641894743 33125077.195366606 31356563.698245168 31372768.315060686 18220486.26080479 20182037.272094496 5153446.725225076 28000653.104225196 13959679.440341882 9567393.325651981 9957422.339970564 17203230.371104013 1298994.9629617375 30250971.35797371 7176516.427835292 53536910.20768169 15265406.690257037 30342337.01240854 10509216.739880068 24575008.466761563 11276110.391031636 30164424.761044662 39120756.72154196 25868748.052916497 39978888.046493776 32331033.098613955 7172407.120739602 19737621.247458152 42081677.155235864 38882134.94671107 27538489.95638111 23054052.366636258 38941389.34321517 33300307.474203847 33877001.03507903 33769880.29619587 34632479.88486774 32781929.520861562 29743250.171845734 33554804.68394102 31755627.977899354 38932833.89159481 28515564.484277606 37801720.182987876 17965450.247916084 24324208.282845095 30436202.868790336 37779554.1787509 35138601.43213746 28578626.368764512 32721557.821777076 63721401.30691731 30265678.552458506 41018213.3696594 33186572.33423574 38739656.00782697 34580741.65579761 46316629.607021466 19942395.324389316 31923241.09533589 32389653.3440113 24770813.243299816 31161797.740221854 10881869.689020341 11703049.183636919 20487380.979071416 38559784.59066152 32950916.920708194 37097813.1344776 51450274.333122745 29625992.413216494 32502187.89850657 48265804.92529226 29569972.109179266 21483271.828515045 38241791.226165965 34853712.615633905 23499879.815358363 15316668.5843691 25500790.16653894 24098056.12192937 38440945.60684773 64596384.88050934 31744185.26414429 2786499.62572779 39095439.4969372 14085710.946160516 10338671.559704803 52257310.194038376 36335935.054624096 33197886.467271626 26819668.974252418 7897750.957831891 34936153.20904233 33724364.68303299 40096146.894615 31153009.010089606 34839378.10698943 24807209.593537766 42220984.92928493 25897066.835522845 39744772.35892999 23535482.39465848 11928833.63985254 30946202.561192606 39535648.40274327 25148538.057250716 19439761.14019637 13787365.630133308 2072618.8199645057 20508370.213970028 32600017.82543698 36224511.9503388 51815303.162292145 38782820.5211296 34039729.54826671 36365471.13226876 12989740.99765961 39319952.050065234 24353705.047303338 5566722.892616262 6981753.3601605715 34753994.49639681 34580433.49226619 5716501.555936228 33032082.32033395 24718359.440497987 38998898.48205655 36309114.19825693 37629078.17204107 5608019.926892156 26451468.966208722 25166148.53337042 41040491.525614314 5077517.477982603 20559457.969457623 27871944.79725941 17078701.929694228 33036926.18160891 38149236.37103687 23090388.997142006 37189029.06017524 94607902.15940437 7629275.625381034 7502695.152721526 33201158.677153394 33449836.73254864 44480385.74602937 33880688.81999433 6827728.564039488 30615396.941238422 44995848.19502324 32073842.545932725 33914079.008511364 38729649.25512657 16099594.34669853 11433517.380893946 38305861.4368378 23349108.657306626 7796467.851013892 5328852.957905826 15370160.31128351 25517906.801983386 31704951.382914897 13832541.589742366 10340555.648195669 19252254.491064582 34464914.70679934 5628652.80244005 29782929.142138295 24664262.62792491 23017601.2622951 30274040.269876044 28101043.363457054 34596689.93019125 33805293.023386635 34518226.90529352 37918301.11422696 32719721.320096817 29228696.03996842 26533715.727851346 35538080.39498005 32758032.571156982 32312296.498024713 12062051.321843775 33151115.841077503 39220458.40768575 39359036.807470545 15782961.024877468 37736390.33686205 30412546.02515574 66623449.26238211 33841798.56304149 5849289.279436652 9745851.784762029 24136300.63319826 31027066.397404864 1059540.2053200863 22603079.58557408 10220117.053331096 37580667.903939314 70319643.90875009 18725952.07255068 28041392.249107674 8739611.87462493 2164104.7939598984 28664699.575279735 9124630.070827072 16574927.820199901 2628034.521299196 32822333.72097504 24995917.932144906 1719523.4830417826 35587435.71101435 34630411.522792384 19002392.66180223 38731817.426380396 43219043.24866291 31148955.294948723 10438101.049190992 54378174.7079766 42278857.18725733 24306681.86010565 70717419.41953261 35081730.45204521 32857950.491080415 42801344.73763072 8636605.902800689 10306668.235751934 18450042.965828113 38902225.02643948 32784904.554024674 35933259.92134854 6137749.572044489 29066492.156447403 38318040.52826219 8743627.75251508 28197454.536917537 33666584.426093094 23267921.808495503 8424127.46383565 35982065.640598744 2508842.6902465867 21645593.724077385 35325123.80214692 41407030.39774227 40783391.569296055 36069807.276522 44508177.766542606 33630841.04459367 14752851.20258161 25922799.8255618 33211712.36215616 2699579.7750709667 37489098.13729104 4158560.3642780334 24717503.134783644 38678182.95900152 23773417.67023336 22263674.50863461 22062146.24482858 39075305.78699504 28204998.538450506 13441003.211871956 2514072.4797469294 35550715.157489374 47598141.951232836 16970819.845441565 15116442.367508553 61624697.97723022 58383360.412550524 1910594.0803838605 31006883.791263707 560940.9616939824 14704555.089417504 32446104.61173202 31500288.944701478 40344776.66201355 38170134.19677284 21814209.55752205 37347856.76412124 11455304.103944868 23487293.64296379 27234169.750985876 30266327.846617643 38323387.135580294 10453622.873322492 2851831.977340495 29181528.1531712 19885863.08501905 16224183.418732993 34201483.734216906 18994033.20869523 22569844.957036454 19809245.41148802 12924948.672105184 12806062.786050778 32165758.956986636 31726394.35762288 33206558.530435957 32210981.172747 24707131.83517426 27757368.426150743 85511129.68697147 36853960.62106883 33202743.90719728 2617938.4274351727 24973391.628791597 32692604.263098184 23732631.5062068 19393791.129237466 18916167.60341601 52465823.63863493 20954377.90995045 7479261.338381719 34351237.209216826 19284867.15102186 19192891.215035427 27893106.578142483 20926857.188648593 32794457.058506187 31324782.14405446 30363059.750430692 2618094.4075087155 8300742.096077683 23570085.679960396 35708262.96369822 14858262.025581708 33334640.32513685 6335486.123762851 30507027.38735115 31734673.967299074 14952145.521965524 16710503.981039442 25575737.441552278 37088955.68294133 36320595.244362175 28005311.264160894 18948190.98879517 32475912.579891402 30251022.482899383 28997575.6405926 4502764.6909846105 37059453.730923355 9203804.780311514 40175268.125085264 40442756.3619082 35248205.52423699 31738834.502246216 25246781.02420872 33362076.137611818 35914702.55330224 22449102.43596604 17940376.401380736 11055743.761414265 43536919.703024745 22718891.768625036 28757347.864658803 24165426.43103653 11844054.46864494 32705403.55209848 33386282.25867294 31772318.28457265 24010889.593874253 26494812.471286397 32902399.232026506 25235637.940893035 37582445.07112844 14279760.959889354 14510769.960112209 19020614.978750132 33705717.360671625 8181990.457763647 27898056.4159369 20365667.8078246 34727325.706238806 37584049.6725777 30286076.819777377 28940741.359079406 22872181.45456756 28382855.034041885 20171504.465870455 32551526.86542883 10247610.088508276 30895918.293832984 7090812.31781435 33876794.085250385 12078043.220853997 40667398.97058625 27717792.47785562 36532629.055715375 11320179.884350056 38241312.854941316 33290190.762030534 3004808.7180236266 33731189.44314229 17980493.455174997 11239254.858340476 21195942.57182644 11001962.00539331 31850788.947578672 48375530.82341349 15621214.636986773 3010215.8095645527 32279857.595966086 15142712.374416232 35867222.692733355 29012039.871343154 8808176.91508875 36177576.55851631 38198397.0929903 16678480.165619606 32480274.06819046 36917078.7439215 32535497.70151438 27912578.195100404 30351954.95327803 32293761.893059865 38096728.642187774 11774106.604243038 37794331.93487698 24021432.898414653 14866170.514022656 35808033.60580289 19419419.49159095 33247997.43575079 39503072.64974337 10743243.669045884 44285121.83238271 31334640.205288943 32020281.11365021 19984778.805781454 44054600.46226299 31308377.79513192 38949102.68334144 38867884.912969165 38765176.559505604 10494242.584825879 10494242.584825879 74638460.72632082 35478851.71565528 40451893.32353692 26957212.15043497 32424866.356097296 27743490.713215202 35552797.979393356 32797783.40649306 26756256.022661194 20317888.063122977 30748304.959827922 17907424.6053886 38297379.08441766 26666527.637614034 31507377.134469774 42541358.36188186 25397118.036280196 38957363.69890694 17621909.71814921 44778310.37575536 7795894.806378137 37206545.47624663 38217394.45436565 12691526.71760441 25211700.173997704 38226077.38039702 40841842.682377756 75718656.62364046 11699247.618261572 5444325.07400473 23746644.962618954 70009474.14756827 29371075.4084904 13807371.780651385 25849354.200049736 27149665.4404917 34319889.53548227 31779052.022292815 7230408.412399409 23650095.602765832 41437374.29470531 32914949.15210205 13796504.307110686 18644205.83676676 24564280.73926074 35523666.870091274 36739581.84672818 2736814.181620622 55711589.07392092 22088123.383059017 31899980.109791286 15201875.983294018 30690463.85758444 41579488.67445686 30072654.544929177 34298581.270502366 39230292.02159872 39607034.45059718 5248704.2921159575 32962445.593856018 26195339.41291336 37243357.5233142 52893418.777050994 13786083.316829776 44352307.95885152 34668008.108432434 23010488.10993391 39329075.51703489 18960169.47881827 26731467.772349373 43399702.449247465 35609477.264132366 37188603.29626975 18153305.012248825 19916537.05152426 36140841.17990595 15180224.519594604 16229746.915556792 41033756.23785311 13742988.234271197 35385820.14306565 4184585.2286570114 2379924.970269788 31282312.119408716 17785900.167914852 25853999.54023979 32110266.938607443 11941608.317041745 14600038.490430247 36273947.66202473 33774689.957137294 33237696.815522663 33449339.406624272 20327390.831814878 6883143.4647013005 31568429.744721007 2835590.8068662477 2845066.221991156 37933398.48250018 77831097.90681697 39675398.011246786 41581006.41285232 35294126.53014777 43712265.7151074 26582431.277837783 38104436.976967454 21866014.462705687 31333834.904154412 31449182.823205277 36076931.37573995 58002545.01189047 33060455.321511336 32304667.576295767 11434906.95310973 2231693.6847107643 2237482.625039058 20203931.499580324 35561550.78749398 32880237.812222626 37851486.7221354 34225207.84560122 14855379.32387651 39603606.869663075 38451104.61174777 39683164.982975334 19376200.002240937 61834671.690783486 6590992.009460752 36968121.98413908 24165855.417004034 1023175.2007272956 2518015.8708835403 3140226.8899149443 38821610.998443924 34398235.76238533 2820745.4240833516 26203778.4784997 35610836.33593713 21023008.28537843 36493996.87958069 36443936.59213778 34562260.80432508 32579536.22001332 28382626.739894953 30465474.923054993 33121989.893740196 25771235.67470745 23271566.689807836 30756809.05938553 8182383.740511806 34482227.37843402 24755133.999919713 33277083.941400018 39461971.984392576 21951244.159635276 34978053.00137689 41904047.456601106 36492877.7775919 37178419.59272124 23863321.109256614 34421576.43902072 8485377.0208875 40205083.41470753 39303104.789890766 17410089.69706308 35770089.39396983 32308694.382489976 16814908.514547553 20063557.09425301 46826138.4626681 38688769.00685447 32845894.54939937 21891705.367717344 22929726.553060777 19525318.80819253 22372120.284232214 31111636.88946004 18121962.658903494 30921052.059703134 26678782.491096992 26682822.357120972 35855065.859573714 16812465.44848979 31590173.2326833 2285846.897289849 50194143.98087835 36613998.6484584 19793370.212949593 35498278.517342865 42703424.33667272 29006211.330108814 24976049.369877137 57830407.27733026 42380190.02699315 39648714.660289064 34071316.10293095 15764777.060448902 28266288.959258836 39059301.10886455 37136141.47793136 35090694.560072735 40102635.8642266 37302323.49839296 29901490.986480035 43538608.02135289 11636641.261514781 29187228.18553957 38753827.240940556 37451829.57863477 15967408.66226822 35755556.349991046 14216489.010417314 35966757.934580974 34839770.19905267 5974210.880830846 24113711.459678404 43289413.2107943 31933491.602703154 30178404.016852964 39283439.42455943 23111908.670808356 37802189.87356936 4451223.084102446 47334568.65273283 41594205.72007051 11963625.597837264 39932853.58717372 15296699.623547927 38065566.793742195 7432230.916775235 40966473.80686312 34802221.63812173 38403976.63584106 37970934.26078366 4052464.4021375347 47771729.938015446 41165954.921298146 12630705.747868832 32279161.89265061 27059459.75804725 35840912.132483006 37709794.6198373 53501413.31129245 31339257.56902653 19135049.864550695 40584829.88569155 35772324.32851613 37668151.48551722 18710510.085286114 37845207.33900802 4420140.831995302 27397365.604178384 19344730.48057194 37821767.21659419 31395948.78452826 45992743.07340015 38489754.814342916 1369035.0065781956 36319926.94562053 34555159.88872582 7765385.378314123 31418797.343176592 28216243.32805534 14500354.569060843 3186946.1978635183 20374705.631241277 33156560.46511932 53004807.64185794 26205839.475531247 53206691.67603821 37306730.684441626 40415542.463574946 29999114.738149498 23230249.8910688 35250893.03456059 49548316.14809113 62205368.1077891 6429891.89152789 17108534.5834 3199319.2439687075 40922795.39885055 33988957.04683293 26880669.990629278 2411860.892654647 34716467.44367709 36970546.057003945 28328365.051485207 31522032.327252176 32501961.207857113 20392182.016470037 44828100.39440634 33486772.172144286 38006027.17955558 22284792.75078934 22898302.74064265 27003416.72423609 18487968.56403102 35380239.593208626 24733386.281333398 12943143.202301264 39017713.773842305 37461175.15845033 21873373.61991679 29297403.10449713 37540736.208056964 26092375.332288023 28242405.213012267 43915862.7192298 13099988.293645352 39454039.752109535 16848906.610741828 13587479.49423146 31861764.045749508 55046235.90845034 32544998.870889574 37596058.53139552 35363378.174555175 37860232.8998889 24489090.098742295 32969567.473618023 21936716.108401272 37500554.35998667 7560454.144540275 37169998.71328083 19698900.33670644 19297480.10000211 33527911.385367192 20980688.20807884 3349164.2883796226 36670272.881030545 32953650.32895888 25145436.237822533 11496121.987908585 6501426.573029364 28229445.988021202 37078634.15942405 29395419.944070213 3450534.485216186 33353500.56527043 39912424.01716427 44194838.007079594 19420338.882871788 8042586.9955217885 23661304.937776383 23425767.49146059 37064176.418000996 22921180.379168026 34312901.93769813 39558906.38908382 16743127.520951226 36319503.62037851 32409183.88731031 17076062.483141117 6110162.485107907 25706279.360366926 38600356.55460367 28673891.480568837 24718458.146323487 33858116.6990505 26918971.663389474 55803804.29783695 68613246.24212822 131109379.11172213 21433782.590999555 38062248.60076963 35908781.38226226 7291183.190580657 31326674.929493282 30591320.969299845 30609353.78563 36174404.76921549 13356401.041040199 11081714.011911374 37719951.90284729 31996761.122442678 91688224.56129314 31115409.46578446 67429888.24994071 24729107.14216339 16374441.323744873 32347831.215179484 17885267.37740957 38952471.81628885 36237932.31324775 42935197.44065118 17139690.406216256 16788134.79765838 16004658.117489936 22124740.271485828 25941902.967529863 38689997.510216564 41728752.49727804 2803664.4607210667 8498965.216742305 4429951.434695844 30921240.468482617 28633004.09378673 23093772.066567633 15747266.218440693 42754084.79439122 36381139.38311948 18479741.6220313 29401363.626759537 47293512.58417615 10510556.951810269 45315138.725086644 25356372.4180016 6219171.572033531 17624519.206531253 3212802.5978801996 30985777.69401044 36330144.52159333 38834326.74234351 33542000.04460629 31351841.789654203 33030292.96292915 52692167.67957407 14888801.179369953 27277970.308548942 26642252.926517185 32410466.82665156 8105045.107833677 40123424.97730506 17288890.50003512 11821035.120722912 32159764.848335013 31163170.03352234 22753020.04296636 2741154.8847887306 18562235.0455303 18824771.014016528 35727353.264187716 45734761.44501019 39199001.59129557 29239821.55448169 16890473.719920583 3268140.3686511354 31427570.8927769 31989867.582981225 41243645.62910542 17349099.806421835 47603149.84505952 28141152.704142917 13499400.198645838 39203668.93218838 25098864.77938607 36809409.478618495 16658047.767972264 9482159.316480879 30748732.145524234 2698987.5975590805 1319308.438927562 30215993.993656322 48483272.78258064 34058574.01840011 31711455.959915962 4436136.695397063 31192729.35035533 30437338.56393768 20391666.9552853 38438054.54447417 46923228.080107644 42019531.22734393 36586599.738357 38511416.64783313 6639352.216957328 37100594.29072722 38423904.64532886 52854593.26106059 18625284.320477545 54000651.556989595 26904834.528021656 15271866.294079015 41842247.251153134 25792017.326497715 30409585.691758122 23531390.948126834 26270248.918526806 4916623.197606481 38348975.688322335 37479071.07960143 53095763.33847784 8625491.674055472 12063265.034799071 11168019.341191255 32784123.491609246 29544460.108465396 32069569.185541082 20913451.159667883 24330940.348411772 34461010.91448992 37692358.26574265 13399749.20461836 6913811.835821712 5767190.78397925 31957074.08082015 23556545.787079815 35145284.75205572 12260580.877318239 34930253.79817396 13767793.792155113 34091029.93466947 6643845.525785517 10205297.865297373 36093217.786164284 782165.6506165195 35740458.45631336 16979588.5953364 13532894.01978111 34903996.9375059 14416738.738494765 29157344.570646577 10188877.836329557 4133579.62495369 38165617.61164583 37395676.642478295 36492812.125864804 26756385.245601993 24315833.188033868 11819683.960600795 41321582.81011458 41050905.44069952 41187462.54074698 88966969.28027128 11201562.34701259 35480003.036096536 32066223.83055426 8380047.464073943 9643748.545873033 32713023.436885316 32448601.002847996 31950103.834876727 22085471.491028056 19635595.692248683 26608401.384390682 34356618.074547075 3084745.4122476415 3046292.79275036 37178990.77260804 38401595.99279222 40998275.77470271 7256060.483356899 628661.7520872892 19715097.46941067 32599079.243766207 7965817.037862878 6261514.454055286 38534370.60356027 48523129.34299321 13967003.152906371 39170015.099422954 21935241.79652971 16906083.907084253 7274353.556925402 39777778.57900334 19316911.470482264 27555523.12191716 85129807.21250941 48457723.04999855 13475151.0539015 24453973.74750496 16963123.09176789 31615018.846529704 10163520.907104027 30717530.542163223 17749661.209565945 17122933.480800044 15971139.911501992 302917.103