# vtk DataFile Version 2.0
Really cool data
ASCII
DATASET POLYDATA
POINTS 2167 float
10.0 25.0 0
10.25 2.5 0
14.75 2.5 0
15.0 12.5 0
20.0 12.5 0
20.25 2.5 0
24.75 2.5 0
25.0 20.0 0
13.015625 5.0 0
12.5 5.515625 0
11.984375 5.0 0
12.5 4.484375 0
23.015625 5.0 0
22.5 5.515625 0
21.984375 5.0 0
22.5 4.484375 0
13.015625 21.5 0
12.5 22.015625 0
11.984375 21.5 0
12.5 20.984375 0
23.015625 17.5 0
22.5 18.015625 0
21.984375 17.5 0
22.5 16.984375 0
12.5 15.5 0
20.0 15.5 0
20.0 14.5 0
12.5 14.5 0
10.00403225807093 24.63709677361622 0
10.0080645161563 24.27419354593253 0
10.01209677424696 23.91129031777318 0
10.01612903230577 23.54838709248107 0
10.02016129035602 23.18548386795797 0
10.02419354841103 22.82258064300752 0
10.02822580648097 22.4596774167125 0
10.03225806456681 22.09677418898731 0
10.03629032266798 21.73387095988129 0
10.04032258075012 21.37096773248903 0
10.04435483879861 21.00806450812494 0
10.04838709688005 20.64516128079578 0
10.05241935495465 20.28225805408125 0
10.05645161303756 19.91935482661994 0
10.06048387112473 19.55645159877427 0
10.0645161292065 19.19354837141498 0
10.06854838727757 18.83064514501887 0
10.07258064536606 18.46774191705492 0
10.0766129034346 18.10483869088549 0
10.08064516151669 17.74193546349787 0
10.0846774195907 17.37903223683728 0
10.08870967767305 17.01612900942542 0
10.09274193573161 16.65322578415481 0
10.09677419381719 16.29032255645265 0
10.10080645190677 15.92741932839017 0
10.10483870998482 15.56451610136578 0
10.10887096806891 15.20161287379791 0
10.11290322615036 14.83870964646787 0
10.11693548422069 14.47580642013797 0
10.12096774229187 14.11290319373216 0
10.12500000036691 13.74999996697819 0
10.12903225842383 13.3870967418552 0
10.13306451647886 13.02419351690233 0
10.13709677451437 12.6612902937063 0
10.14112903255518 12.29838707003324 0
10.14516129060447 11.93548384559769 0
10.14919354865313 11.57258062121796 0
10.15322580671374 11.20967739576328 0
10.15725806477384 10.84677417035441 0
10.16129032281338 10.48387094679534 0
10.16532258087472 10.12096772127496 0
10.16935483892187 9.758064497031445 0
10.1733870969857 9.395161271286613 0
10.17741935503843 9.032258046541457 0
10.18145161308684 8.669354822183982 0
10.18548387114214 8.306451597207326 0
10.18951612919923 7.943548372069355 0
10.19354838725904 7.58064514668658 0
10.19758064530033 7.217741922969729 0
10.20161290333043 6.854838700261147 0
10.20564516138313 6.491935475518151 0
10.20967741944725 6.129032249747367 0
10.21370967750003 5.766129024997362 0
10.21774193554038 5.403225801366053 0
10.221774193581 5.04032257770997 0
10.22580645163059 4.67741935324665 0
10.22983870969496 4.314516127453131 0
10.23387096776351 3.951612901284103 0
10.23790322580145 3.588709677869551 0
10.24193548386297 3.225806452332522 0
10.24596774192589 2.862903226669555 0
10.59615384879596 2.5 0
10.94230769598397 2.5 0
11.28846153932223 2.5 0
11.63461538477885 2.5 0
11.98076923215367 2.5 0
12.32692308114312 2.5 0
12.67307692536209 2.5 0
13.01923077070862 2.5 0
13.36538461224543 2.5 0
13.71153845566042 2.5 0
14.05769230141394 2.5 0
14.40384615085709 2.5 0
14.75892857144616 2.85714285784649 0
14.76785714288078 3.21428571523109 0
14.77678571432 3.571428572800198 0
14.7857142857668 3.928571430672074 0
14.79464285720148 4.28571428805915 0
14.80357142863987 4.642857145594823 0
14.81250000006625 5.000000002650031 0
14.82142857153606 5.357142861442594 0
14.83035714299431 5.714285719772646 0
14.83928571446538 6.071428578615361 0
14.84821428592949 6.428571437179454 0
14.85714285740048 6.785714296019075 0
14.86607142885319 7.142857154127467 0
14.87500000027791 7.500000011116425 0
14.88392857167472 7.857142866989042 0
14.89285714308988 8.214285723595362 0
14.90178571450818 8.57142858032706 0
14.91071428590076 8.928571436030644 0
14.91964285725977 9.285714290390665 0
14.92857142864635 9.642857145854018 0
14.93750000005199 10.00000000207956 0
14.94642857145045 10.3571428580178 0
14.95535714287157 10.71428571486281 0
14.96428571429883 11.07142857195331 0
14.97321428570877 11.42857142835066 0
14.98214285713628 11.78571428545122 0
14.99107142858074 12.1428571432296 0
15.3571428591223 12.5 0
15.71428571719138 12.5 0
16.07142857423201 12.5 0
16.42857142974857 12.5 0
16.7857142846084 12.5 0
17.14285714112862 12.5 0
17.49999999772317 12.5 0
17.85714285297952 12.5 0
18.21428571083795 12.5 0
18.57142855939082 12.5 0
18.92857141386655 12.5 0
19.28571427430228 12.5 0
19.64285713574168 12.5 0
20.00892857145444 12.14285714182253 0
20.01785714288121 11.78571428475149 0
20.02678571430391 11.42857142784392 0
20.03571428575173 11.07142856993083 0
20.04464285716307 10.71428571347709 0
20.05357142862058 10.35714285517672 0
20.06250000009985 9.999999996006125 0
20.07142857160473 9.642857135810823 0
20.08035714307449 9.285714277020388 0
20.0892857145293 8.92857141882806 0
20.09821428593644 8.571428562542428 0
20.10714285739586 8.214285704165588 0
20.11607142887573 7.857142844970847 0
20.12500000035236 7.499999985905506 0
20.13392857174129 7.142857130348313 0
20.14285714310267 6.785714275893214 0
20.15178571450528 6.428571419788685 0
20.16071428590087 6.071428563965252 0
20.16964285732718 5.714285706912793 0
20.17857142873676 5.357142850529643 0
20.18750000014888 4.999999994044952 0
20.1964285715605 4.642857137580068 0
20.20535714293256 4.285714282697754 0
20.21428571435444 3.928571425822371 0
20.22321428574628 3.571428570148774 0
20.23214285715693 3.214285713722903 0
20.24107142855655 2.857142857737868 0
20.596153845103 2.5 0
20.94230769181397 2.5 0
21.28846153698369 2.5 0
21.63461538161964 2.5 0
21.98076922946485 2.5 0
22.32692307653609 2.5 0
22.67307692028468 2.5 0
23.01923076562454 2.5 0
23.36538460449588 2.5 0
23.71153845024273 2.5 0
24.05769229413811 2.5 0
24.40384614838844 2.5 0
24.75520833333718 2.86458333360238 0
24.76041666667798 3.229166667458308 0
24.7656250000173 3.593750001211001 0
24.77083333335809 3.958333335066103 0
24.77604166670141 4.322916669098772 0
24.78125000004511 4.68750000315787 0
24.78645833337953 5.052083336566992 0
24.79166666671298 5.416666669908391 0
24.79687500005813 5.781250004069072 0
24.80208333339111 6.145833337377437 0
24.80729166673437 6.510416671405975 0
24.81250000007497 6.875000005247864 0
24.81770833342114 7.239583339479573 0
24.82291666677311 7.60416667411762 0
24.82812500011363 7.96875000795414 0
24.83333333345632 8.333333341942213 0
24.8385416667967 8.697916675769235 0
24.8437500001361 9.062500009526882 0
24.84895833347101 9.427083342970692 0
24.85416666683082 9.791666678157132 0
24.85937500017594 10.15625001231616 0
24.86458333353615 10.52083334753068 0
24.86979166687154 10.88541668100752 0
24.8750000002114 11.25000001479821 0
24.88020833353079 11.61458334715515 0
24.8854166668455 11.97916667918503 0
24.89062500018088 12.34375001266188 0
24.8958333334951 12.70833334465707 0
24.90104166681805 13.07291667726343 0
24.90625000014924 13.43750001044626 0
24.91145833347969 13.80208334357788 0
24.91666666677206 14.16666667404435 0
24.92187500007075 14.53125000495268 0
24.92708333337507 14.89583333625455 0
24.93229166665025 15.2604166655177 0
24.93749999993438 15.62499999540688 0
24.94270833326972 15.98958332888 0
24.9479166665939 16.35416666157307 0
24.95312499989663 16.71874999276385 0
24.95833333321826 17.08333332527833 0
24.96354166655782 17.44791665904754 0
24.9687499998933 17.81249999253098 0
24.97395833322337 18.17708332563618 0
24.97916666655323 18.54166665872609 0
24.98437499992156 18.90624999450882 0
24.98958333327948 19.27083332956353 0
24.9947916666537 19.63541666575921 0
24.65909090697006 20.11363636434331 0
24.31818181387862 20.22727272870713 0
23.97727272112545 20.34090909295818 0
23.63636362933978 20.45454545688674 0
23.29545454074166 20.56818181975278 0
22.95454545175678 20.68181818274774 0
22.61363635870555 20.79545454709815 0
22.27272726938004 20.90909091020665 0
21.93181817642107 21.02272727452631 0
21.59090908415283 21.13636363861572 0
21.24999999070893 21.25000000309703 0
20.909090898365 21.36363636721167 0
20.5681818062032 21.4772727312656 0
20.22727271532826 21.59090909489058 0
19.88636362288735 21.70454545903755 0
19.54545453222531 21.81818182259157 0
19.20454544067146 21.93181818644285 0
18.86363634917439 22.0454545502752 0
18.52272726008306 22.15909091330565 0
18.18181816691119 22.27272727769627 0
17.84090907624678 22.38636364125107 0
17.49999998161302 22.500000006129 0
17.15909089129634 22.61363636956789 0
16.81818180107666 22.72727273297446 0
16.47727271035784 22.84090909654739 0
16.13636362113641 22.9545454596212 0
15.79545453028867 23.06818182323711 0
15.4545454400335 23.18181818665549 0
15.11363634812483 23.29545455062506 0
14.77272725866684 23.40909091377772 0
14.43181816866006 23.52272727711332 0
14.09090907805834 23.63636364064723 0
13.74999998745307 23.75000000418231 0
13.40909089754563 23.86363636748479 0
13.06818180839043 23.97727273053652 0
12.72727271853859 24.09090909382047 0
12.38636362812021 24.20454545729326 0
12.04545453791708 24.31818182069431 0
11.70454544876188 24.43181818374604 0
11.36363635991656 24.54545454669448 0
11.02272727049761 24.65909090983413 0
10.68181818161208 24.77272727279597 0
10.34090909059876 24.88636363646708 0
12.86460193220061 5.364601935898014 0
12.13539806564783 5.364601933746452 0
12.13539806779939 4.635398064101986 0
12.86460193435217 4.635398066253548 0
22.86460193304701 5.364601935051613 0
22.13539806478868 5.364601932887309 0
22.13539806695299 4.635398064948387 0
22.86460193521132 4.635398067112691 0
12.86460193226812 21.86460193583051 0
12.13539806566697 21.86460193376559 0
12.13539806773188 21.13539806416949 0
12.86460193433303 21.13539806623441 0
22.86460193292542 17.86460193517321 0
22.13539806482679 17.86460193292542 0
22.13539806707458 17.13539806482679 0
22.86460193517321 17.13539806707458 0
13.0357142863834 15.5 0
13.57142857334916 15.5 0
14.10714285783675 15.5 0
14.64285714470339 15.5 0
15.17857143070267 15.5 0
15.71428571720997 15.5 0
16.25000000702564 15.5 0
16.78571428904744 15.5 0
17.32142857412979 15.5 0
17.8571428511085 15.5 0
[...]
CELL_DATA 4028
SCALARS Von_Mises float 1
LOOKUP_TABLE default
30593486.256795693 35683640.19340619 31279511.81483972 7811148.123389152 35775791.69102936 48678284.9450263 27506540.173485704 34196808.08653472 46991095.12679706 18531045.098343275 549902.2419189459 19444391.671323635 35629857.922862455 2635826.74643009 30839588.322262865 33973824.47050794 26230640.465679668 36984106.9165089 8033481.689533555 14444728.70400633 6379939.839525306 29922349.99426756 19083338.519776367 35131381.84275363 18634908.907578368 23546841.443949874 31434909.24475819 34000216.02181716 13997650.57942486 34577373.64094986 24050210.09892732 34511639.994207054 632278.2633288251 12772191.436693745 26640026.928415135 39104009.3981226 32904609.303981584 32656295.147491533 41506596.8434981 19217471.952033814 34285889.28490433 25094831.603779037 33905142.88810276 42493831.14343779 22654181.26127979 17668754.94530546 31745991.69608474 41071713.686370894 1318136.0020057573 8552863.606734699 40795410.900726214 33677104.64290401 2640941.2499706647 35751945.56837585 40601420.92786021 4463871.790274542 38506550.98906251 33552776.670573864 9528249.882077077 14692693.275952263 45856666.98495026 31580540.240869682 12669681.057838233 10189202.985226285 9123172.77292195 4463065.802408818 1687551.1255785977 657131.0620033005 51090591.170318685 35847666.33428566 12503582.877966836 12473122.995980315 38374288.54724466 50207942.61167075 14213136.612968603 46447635.6107623 35842437.80750279 20432837.617259763 29977631.15688508 50021641.682728104 65221811.57910767 35321447.75040381 57680788.501189254 28103591.188137054 24268220.921838026 25025258.523945365 34923628.367447786 28137572.067968573 26201190.979127653 12183667.459210357 8166905.765952402 10579098.004826436 35370418.04887348 22983255.009312622 35008705.47526269 64283359.85615597 30090991.257331945 14064882.859162586 14439009.000665942 35071425.020203725 67626728.88163885 14673650.315622903 30586030.828691155 49958398.835117824 62975693.4621563 10591175.833798137 34902803.301745065 25341861.138828605 33342664.16704422 33926411.352658816 33731838.01212334 34723277.05811319 22248462.47696371 23589632.93260868 20391369.222954974 28524367.40132947 28660365.145328406 32691226.362320937 30432696.912376553 836743.2465294072 26621468.028908223 32553166.35651547 30105424.945852336 1689634.2076130405 23205559.977140617 33747231.34254102 35341012.00352246 25731061.106313016 42002960.338934064 22736579.103990715 24679613.691529486 18325817.190437444 18186523.73262851 12724538.91326315 28661430.94495788 7439605.9444973385 2044415.2054908248 17154289.96434271 34946734.85140935 36995309.312134825 18512487.178001996 23373931.86025239 15202055.09260722 2796248.487778772 35199667.615140095 54425687.77743998 33144050.05869554 14054580.78615302 10251807.014632674 32861778.063593987 26865110.1091314 14361123.659308748 4858284.439151394 38454953.23619497 26314183.138867095 34783536.17209071 31157830.770708766 8302374.829231822 32983506.815725915 26370213.710672986 32583636.24546082 2186345.4051306597 33871548.26828656 93760361.79578577 25852973.43373357 39130301.23914896 36096588.48681911 25302266.067189742 10096846.59128445 30890499.851481494 23268012.176140815 13908220.25604023 32323018.16311004 67960790.11008896 19751518.692475706 32855623.858227447 35285768.13375144 41131736.75236278 21425295.142978452 25481744.12321145 24420541.137252565 41045143.85524229 15078291.102688609 23830600.885579854 30494233.310122613 32575069.17464703 24855071.41818114 5089372.136675523 41698634.69180208 38517481.477629386 19060362.481790192 10675254.360246424 16513428.573294401 44568368.45555408 30590569.57203714 70267381.39297397 27953799.949457977 23096987.87790084 62727670.44644256 28815921.0354969 11370483.160513522 34206947.92022323 39912078.91148051 987052.1750490125 30635028.168922983 40796842.57118066 31423594.13258711 21821221.95885484 7603564.260776442 28880792.27915811 35149516.44521586 22584297.24275625 16693897.308887642 33668550.646974646 26421236.012111664 27217894.682914995 16143451.524981922 37238352.46905118 4711029.85027762 35614696.360215485 43678216.91492691 34560566.28475773 15499867.073942157 33634884.56467404 37358367.1136148 10369643.238218883 20722825.9220097 5586857.669540089 30375872.867310677 34040989.665961854 39036547.774204604 33856827.30969383 37556142.70644 16586542.721452236 19318345.0354513 36503878.32205731 35427421.18712596 72652700.59508808 22722676.231803384 26602498.05624454 12065443.187170321 32831927.7618224 8015043.939295938 32311176.321670778 39263212.30889222 34997358.51980921 4675805.692926213 25210019.352530073 38257950.07479506 24063560.1684761 26121679.793562025 27971467.249481928 10154521.830862673 28068976.39193893 41021255.86144303 7764679.427091922 38175607.381709695 34018221.311292745 34609735.7934123 35532518.752251595 22146311.327607647 28412529.3614546 37671952.84114843 26664274.148801364 37342738.30381652 33728563.04203703 10517801.286994653 24424835.88011976 14192796.367445229 8573823.482835408 10211048.132800559 34964665.18643429 36638056.00256545 31864520.261133026 28221726.70640767 31454404.615265314 8353374.064364239 29260985.226572923 6314513.013165574 29953632.86189286 17004413.175246213 35401153.372342564 23324845.129364584 34099235.52203554 76172616.48913136 33963717.36025296 41496176.71615992 37631491.65613514 14622698.747368826 5998097.73740934 11147754.575997053 35437821.91584773 8236296.05047345 35684764.221881285 2565534.774505092 30295931.792647492 13053229.170323446 9158935.51896033 35905534.631670736 34035213.86364776 37623974.09032623 36392728.29264758 14267077.526176075 7973220.4684600085 54722821.87729804 32141147.62052452 31364272.172214303 37916120.750199415 24577607.093149316 42875135.44018774 17928413.906907413 36291948.73842885 31605403.279735547 15103276.78069332 23766129.926791318 28248358.961504042 32533712.79264195 39172164.35763288 34781776.19363992 40116299.51268744 32679839.727899287 21961651.281501364 8728876.425444536 37157063.9932031 31577699.90573764 32128761.06669042 30356841.816439588 32086921.77733853 36518570.358442046 10639803.361291487 29659947.806017566 12523572.798352737 29244948.497453738 17379467.720024455 32104130.20556298 12728006.967143063 13771198.659296516 35523291.99348942 20066957.536443908 36943954.21632053 22700356.563196294 12977017.979540823 41091774.13457267 26850577.912837088 25818572.37127276 19935112.72353377 86724260.64712986 833933.9616340442 32720912.917485632 8307381.572361284 33148245.417945456 34095513.65229757 31809575.750521217 55961864.738013335 18576390.28090816 18809397.302448906 11281066.206843449 32466309.335353643 16967538.006094545 24271172.514163416 16455484.15482147 32047967.81093707 30395205.734889537 22393779.332495082 38571687.130398355 35159198.32611372 29334168.388373595 36161028.2324171 29711038.133396756 31659102.90301113 33844333.59096502 17403055.990331843 34730384.286892004 30416952.83434817 30489719.090969466 30028428.44682178 35115906.75685405 35581805.466693506 14670509.801009063 31867800.295255613 34105753.201336004 8173850.197296785 12571670.788416326 12615005.641572714 35313097.34127781 37977312.90885838 32273742.949180204 34447344.322949976 35385741.998921566 35991081.709255375 33689290.69644249 35266783.38536084 19047405.352309074 76841715.11787473 36251148.0724919 28588689.9549729 18098731.716363747 26272989.743588995 7314337.695722142 23194063.082968302 31853091.638314508 28696502.318318535 9743989.137639245 11974945.145650797 3297780.687919966 6266954.910291783 26516857.397376534 45547567.09499238 24059540.40381491 23242481.59840953 25100038.524348903 9387944.127473008 39115424.98338682 18786868.32744236 11161266.365066808 27192485.62486825 30369747.990715656 14594504.912255451 6996775.94018734 12229819.583773723 63583674.8335367 15841054.761806237 39885288.76780517 32270183.599325493 20956081.38378839 14610392.647910008 30657214.233607866 5176126.836838274 15770344.817905623 27535030.850901876 34599655.47792542 35792447.439340696 35688593.4179927 31867008.81906511 6446743.860848595 34781031.89744207 32494159.249256283 30076447.96438379 38730578.82905834 34088833.55097635 24809155.547654837 5311870.356648025 32112686.77006872 26113402.82182052 8616492.857072279 19485768.737226505 15726726.84348488 39964778.91588742 36017054.70865857 29008233.814824313 21838884.950343173 36521285.3670811 42117071.09341808 20173982.651717383 19554253.37756314 8322841.506785377 33651732.84905618 2990107.493827032 31251994.090011295 7127040.146042672 15226878.20435957 24056454.150129776 8726047.432645325 37653360.08391272 24892810.01778099 32556715.747823343 1621083.6261271636 39147766.67282167 34077077.882337414 10417134.11902591 10417134.11902591 27870666.36065943 13429580.535539286 1605153.744833521 26850632.019752942 38247057.86177837 32172616.95605469 14860678.384993996 33519120.676015206 32544744.31141087 22222006.692127246 31271820.992352586 31035656.487915166 15866331.792389719 3630612.17907318 3582111.6281752335 32571569.89240346 7016431.886732822 32513006.79404807 44480462.655847095 75526493.40981904 36386332.302359894 9124098.95808107 40960256.08708853 33203657.20779993 5420978.869691873 32221200.89672219 23853987.48585941 29977099.815231677 20036127.56145099 71575979.79960987 31314423.046909966 15324156.375933351 16820798.157469835 56088810.19716325 26858575.32965577 10069378.330784872 29381270.31572072 1414295.2565332416 34710895.63042155 7447371.640739312 11301519.22032443 36153891.55852585 3916095.557144692 4067946.61458215 10042256.968554199 39258106.44439901 33476713.683378305 34458224.160277046 18611674.508898005 26517618.309447225 35674115.34521548 35649409.076570846 34428439.258948736 40390476.66266685 32460396.129165005 30199755.812291402 69636889.72899537 32916598.763552543 4240849.557573638 38249904.04067662 52764429.89938956 35299696.891729586 16258003.39406077 40916703.29353928 9935969.022746135 12822635.367521342 34911695.978588656 18009066.793513615 16052578.585604627 32752162.58423092 35441165.04068933 18626310.875030573 52647774.95120997 22883018.931037776 22563129.375560116 26162519.63617528 35467706.47157578 4188327.687494297 23203090.23881679 34787939.50483068 35137350.050548986 12831514.57451489 2782505.6462880555 34578249.515060015 4479442.417117263 19345371.1019852 33023143.269263785 41661338.59660969 43398804.07659718 36328104.483318694 36078975.82842422 30414330.348028563 2780034.9084458794 26954534.912868734 49325225.646696605 9692244.262028381 50603542.04305903 39667842.756744444 32195853.41403492 31892929.527562406 35555798.75807321 17107535.29893028 25545965.48386703 20144277.42874843 32157662.2172809 28428678.79775107 5887333.770478097 32675649.103186917 32107234.598967277 32670843.372151904 6631760.7292346945 31664951.78550346 26577391.41178265 30441009.918186992 32289519.484919656 27654517.77569898 29128911.822194204 6548963.889822042 11220832.009808397 11538854.146237664 19775101.412669886 20181226.057138428 37928049.024193294 2721270.8218655763 2736349.5020130887 32047628.275996312 37136936.52972978 33994871.336745605 26375322.04275655 24456740.582411706 19487620.701035347 16258581.086574178 11744972.052691506 26741484.940941744 31845775.032424722 33935222.13549597 42245584.97995445 34473305.07243158 38209045.386811584 25823166.41963969 36793089.85537256 23015827.883790348 32359658.223946024 12932324.927153585 35302570.47679977 32217525.07578969 8416448.629257394 16722896.434956145 16861136.75247312 3142746.3156444905 59614020.20553696 28671379.289795995 3939899.6707162303 11159569.251816368 22135269.076483026 21833579.86764954 36562084.26942695 36495064.65551151 23080720.031577334 23985783.285184167 35045936.094953075 8369478.339946088 34304449.658906825 33195435.34165205 39410134.83323359 29721375.098562602 11401724.589679878 32544152.86899223 35561792.77108912 56274006.12968514 33480425.6852225 35578872.68332574 20040023.244246963 43064711.228924364 33597953.018594526 32096791.033283986 23403611.688846573 18861532.95047537 26751076.69621787 19513704.547227986 27636271.951506235 57216432.52573042 48524160.02665871 30590616.129912045 26791409.114078492 26858114.68808083 20385879.34576143 20406315.013518386 33998121.50780663 68701819.79635009 35599011.89333078 28988096.861738 34353646.72039174 57400671.569983 33720970.66812005 35314061.04767738 3096030.433191198 24284101.41357662 39510431.71806872 32994755.661835615 28327288.831795678 38823229.866246626 14282006.420770941 36540305.28387688 20324929.481314648 3818098.436046829 34600209.649456106 28642436.318550523 19416046.154828124 26246423.035715505 67112693.97253294 20788858.81604245 34438481.946027756 12684118.984063117 33039163.05937636 32512080.960765637 31024445.229279526 7274874.518453058 37198188.352109425 15844642.436806543 35133875.98205675 5998511.9123610165 35638252.58910053 38109684.41355032 4774936.86076533 4637565.048140731 13540290.99269614 30214856.48607865 31715541.791143324 38079537.63977961 35701943.628801964 23315247.5868043 59312005.34946847 24181872.10328458 985028.708143299 53050597.369722456 25458222.884519752 2470045.651369874 3257578.4932167507 43660732.19201894 27529905.259863652 33833977.36707526 23046242.61070714 5184712.003478881 5166812.896094778 34601517.307800926 34448563.75175039 48019262.96505581 3885117.55109485 33970806.72964737 25382708.454684287 31278006.387990173 26034682.828704543 22610168.50380399 30581487.717920743 28901492.856197402 15199764.076283133 28866642.52775479 35733716.16423087 15463525.39005718 31593232.567934815 34552998.357715525 42922122.45327066 2259270.2968555433 34175451.674880326 34137659.74036176 30220352.10082076 703470.0636176501 17379467.720024455 36112600.13809373 43865953.22777036 52825198.224266894 1963033.6129273647 1979501.2258127125 31656764.966471653 23078769.773609728 30507230.334479477 40981138.31569576 8964086.3569677 8222196.125699718 35867479.40552449 21509481.691566683 3370561.2797886054 3354828.9805334047 34101139.97670218 34421934.242673516 35185804.11127906 23640306.322105683 25098980.592121657 37462290.44213931 34657026.51575736 26632700.603031393 50453142.71501741 28736337.32222493 21334263.652711354 31518771.587021377 34019559.664650254 46527255.84189242 23649204.29260467 31524926.21403522 21186703.278573688 55759181.639073804 3219720.159242006 20849064.838337533 20239116.15867484 52940270.23228195 34642867.2641294 36671368.28249177 35853586.56357926 31898069.225034628 40200951.85449929 6525122.5648612855 38750313.7410058 35368757.86510142 31416982.853530273 40426795.48385714 32440917.046081305 33642311.500795305 26641048.996764947 62044708.59881653 6611910.409172304 25055936.14934794 34654065.650723144 27060467.55659002 34051177.660818316 9991740.308469107 25912011.293573376 22918526.819362026 40856193.76101342 20999382.329259112 31788123.16348812 46534044.058320254 5161477.137953004 31192606.339128137 16381121.327199893 32369866.780548897 32442020.620153587 15646389.98921001 15691263.00029929 3223399.6277452875 52832547.7609531 26896480.505783293 34200913.42152056 22572662.144620188 59469240.82609183 21866739.31866359 29308055.208495386 17115426.48860535 26120880.003365632 43762863.913290516 26523990.220769547 28074515.502725523 31724607.967590466 35502810.423940204 46153145.64752878 33251481.07843177 27716812.45408148 34302119.79387494 25659310.033385444 17980667.208652005 24564646.277429733 32937467.16253496 28696396.350631863 6192744.971778001 26334316.731479876 48130029.85283609 30748442.892883435 59550377.586272866 14030353.623297954 33849143.52579854 20868805.360397875 3312608.3131575403 33413911.60730052 32040803.466345727 35300787.57303644 25522881.32642759 28270676.287296284 8675216.237499397 34790406.34706101 22556939.498635113 24637205.859007295 33110198.509528946 40371272.17310733 24517175.099185836 6153735.206305109 16581604.176374655 13782275.444954418 15844693.878614748 52326269.4370609 25020155.59410538 9334314.166870179 34262423.028702244 19524154.399219234 8204903.772992745 38664732.54283943 23424747.503896747 35806162.00527928 33388447.900256064 37060787.957091525 17461399.46707424 31313393.642372537 5929640.661101188 25740476.682203244 7690203.298118655 55479064.43780584 16101099.822436266 51570864.94493236 33449196.12264648 133551456.71292078 32150783.12362257 38236728.67392612 34540346.18149341 39333931.00517127 27056249.959543053 22774616.148868803 42169846.24554136 22544958.919155654 49321965.521343715 21990739.951670058 10208831.19015393 37925925.905399516 24865633.877012342 8495570.829500347 34395100.80937217 7665969.748085946 17280263.78715873 22394360.584358994 17290745.613169238 30847346.111821435 34495571.11302323 16126887.755021695 19757077.44090496 31791241.759729393 29775399.793080933 32585502.72506333 12567457.439830013 25797758.037566606 35170032.93386403 32336918.808836233 29087747.096257202 27893027.40974511 37816873.26183297 15184240.297112625 29721732.49333745 7046001.69606402 7067327.076903604 27848486.74241709 17164587.56503846 8578776.953239955 4288948.395357116 34984141.99296451 28859587.775050808 7490045.890087996 36126546.87390493 32454531.59486127 30181168.838128343 30885025.856366545 52859943.45540221 23898438.232817855 13152197.86380707 67367376.403795 28121585.82347456 85908301.95607385 23962240.546765547 16830547.271025617 21950594.513387747 21728272.875131037 13374450.505336545 23836654.892106086 1901334.689746785 2865379.4861332467 32400799.172846805 8554628.906427113 35695985.89907626 17613734.29146439 5058637.216897715 5090483.0523280585 28425653.375308942 14963148.499312289 7025530.65753141 30280373.254325107 28602055.550361715 3032261.5307027726 35939414.94233432 37176913.2083281 36370088.82355752 32304629.197341714 26698147.47839676 37626893.695099995 10812276.181062113 27641390.636835527 32850621.444141023 3338098.8662004094 32394222.432305004 31684473.883314323 34399484.86072984 41469015.32607341 12860385.944685675 16802817.000520777 34897333.40005018 32050068.38595803 1350444.6711405085 17299500.510138106 34111980.64196327 97660073.87016474 17460173.664596286 11901833.463215224 22883717.412916623 11437891.572029773 16498034.277704319 16560910.181486217 35129181.650693744 13146736.912894404 30652238.515769046 13653288.338857867 20517549.89734504 20507940.065731686 4946899.544409107 15685687.348918581 28931165.603404738 27304580.310457833 12097507.148833646 32861998.800681017 35446615.798431985 23241653.989909124 16109024.223945122 30662880.638294496 34579872.5931209 4882934.707544072 15767881.5264704 26845020.260601897 20379707.076731134 24400777.583468463 5509850.854585521 40718456.30291243 29682888.368619073 41396056.42870675 33722815.54241951 37102271.76274738 14137055.143568018 5061520.618583893 4736812.552759242 34438231.526299566 16014582.235830806 39277436.83573441 34723004.935028955 1926894.4142063358 1878419.9648803694 15228355.892134072 41931637.20794643 23685950.217664205 23844255.90577566 50758967.46010942 38215709.75503928 5563270.053356735 35928519.19146848 29066181.918836076 32024435.935138084 12014087.174097382 35261595.47414581 36267790.738752164 20257278.69681937 19905848.60992686 29599094.409627922 37260060.99820168 32244568.14316033 17285938.710282754 23412647.683192763 5415531.027706614 25578680.560504403 33219540.608208615 26156753.1763287 12525739.542458383 34594468.31713004 40341317.14400699 44895082.2488458 12157978.21642481 32598322.16960412 6576356.3617262 27650978.935741868 39026179.74375595 13489248.048208315 19851469.084932525 6460025.724161628 4224164.222348756 12274370.642156858 25616297.164366737 29270373.896625698 38879484.199639805 3267051.440824837 3292285.9367635855 6155360.126406 6437022.320435759 47137883.65201887 9673169.873759896 18488558.52415253 41348030.19566404 14681427.012830162 11202682.35156847 11795772.42169612 27809246.264970902 6533007.637062093 27410860.108530764 34112151.47403263 23393268.86234829 31297145.431595672 17308478.56379144 31820035.827711396 31676830.126802593 24770259.16031721 29602387.329242233 3560