# vtk DataFile Version 2.0
Really cool data
ASCII
DATASET POLYDATA
POINTS 2207 float
0.0625 0.14 0
0.1025 0.14 0
0.105 0.12 0
0.1025 0.1 0
0.0625 0.1 0
0.08 0.085 0
0.1 0.085 0
0.12 0.105 0
0.1849999999999999 0.10703125 0
0.28 0.11 0
0.295 0.095 0
0.315 0.095 0
0.33 0.11 0
0.33 0.13 0
0.315 0.145 0
0.295 0.145 0
0.28 0.13 0
0.1849999999999999 0.13296875 0
0.12 0.135 0
0.1 0.155 0
0.08 0.155 0
0.32 0.12 0
0.305 0.135 0
0.29 0.12 0
0.305 0.105 0
0.06460526315769857 0.14 0
0.0667105263283434 0.14 0
0.06881578948821751 0.14 0
0.07092105265058816 0.14 0
0.07302631580664619 0.14 0
0.07513157895204049 0.14 0
0.07723684210066246 0.14 0
0.07934210526289043 0.14 0
0.0814473684277576 0.14 0
0.0835526315793932 0.14 0
0.08565789473275853 0.14 0
0.08776315788858471 0.14 0
0.08986842102957446 0.14 0
0.09197368417487961 0.14 0
0.09407894733179357 0.14 0
0.09618421048592571 0.14 0
0.09828947364658444 0.14 0
0.1003947368213307 0.14 0
0.1027500000023422 0.1379999999812621 0
0.1030000000064015 0.1359999999487881 0
0.1032500000104274 0.1339999999165811 0
0.1035000000100872 0.131999999919302 0
0.1037500000139943 0.1299999998880457 0
0.1040000000104641 0.1279999999162871 0
0.104250000013044 0.1259999998956476 0
0.1045000000122317 0.1239999999021466 0
0.1047500000051606 0.1219999999587148 0
0.1047499999967682 0.117999999974146 0
0.104499999993941 0.1159999999515278 0
0.104249999988275 0.1139999999061998 0
0.1039999999866674 0.1119999998933395 0
0.1037499999872815 0.1099999998982518 0
0.1034999999873638 0.1079999998989107 0
0.1032499999861264 0.1059999998890111 0
0.1029999999898351 0.1039999999186807 0
0.1027499999950283 0.1019999999602265 0
0.1003947368296405 0.1 0
0.09828947366530832 0.1 0
0.09618421049049075 0.1 0
0.09407894733559186 0.1 0
0.09197368415820642 0.1 0
0.08986842099487286 0.1 0
0.0877631578296669 0.1 0
0.08565789465541995 0.1 0
0.08355263149590247 0.1 0
0.08144736833502973 0.1 0
0.07934210519206061 0.1 0
0.0772368420354676 0.09999999999999999 0
0.07513157887240152 0.1 0
0.07302631571254523 0.09999999999999999 0
0.07092105256321891 0.1 0
0.06881578941536372 0.1 0
0.066710526273946 0.09999999999999998 0
0.06460526314505549 0.09999999999999999 0
0.06409090909410009 0.09863636363362849 0
0.06568181819492716 0.09727272726149098 0
0.06727272729776829 0.0959090908876272 0
0.06886363640233427 0.09454545451228491 0
0.07045454549150328 0.09318181815014008 0
0.07204545457286471 0.0918181817946874 0
0.07363636365534225 0.09045454543827808 0
0.07522727274056942 0.08909090907951193 0
0.07681818182946953 0.08772727271759753 0
0.0784090909156251 0.08636363635803561 0
0.08200000000315097 0.08499999999999999 0
0.08400000000745388 0.08500000000000002 0
0.08599999998316099 0.085 0
0.08799999996401806 0.08500000000000002 0
0.08999999995273558 0.08500000000000002 0
0.09199999995121091 0.085 0
0.093999999934914 0.085 0
0.09599999993196633 0.085 0
0.09799999995619146 0.08499999999999999 0
0.1015384615440715 0.0865384615440715 0
0.1030769230707984 0.08807692307079838 0
0.1046153846014542 0.08961538460145416 0
0.1061538461355046 0.09115384613550462 0
0.1076923076739466 0.09269230767394662 0
0.1092307692141739 0.09423076921417387 0
0.1107692307468821 0.09576923074688212 0
0.1123076922736741 0.09730769227367413 0
0.1138461537886207 0.09884615378862073 0
0.1153846153245868 0.1003846153245868 0
0.1169230768683846 0.1019230768683846 0
0.1184615384317815 0.1034615384317815 0
0.1221666666682225 0.1050677083333819 0
0.1243333333369366 0.1051354166667793 0
0.1265000000040562 0.1052031250001268 0
0.1286666666814812 0.1052708333337963 0
0.1308333333140446 0.1053385416660639 0
0.1329999999726141 0.1054062499991442 0
0.1351666666401568 0.1054739583325049 0
0.1373333332945467 0.1055416666654546 0
0.1394999999698329 0.1056093749990573 0
0.1416666666405056 0.1056770833325158 0
0.143833333281017 0.1057447916650318 0
0.1459999999598918 0.1058124999987466 0
0.1481666666337889 0.1058802083323059 0
0.1503333333216364 0.1059479166663012 0
0.1524999999927106 0.1060156249997722 0
0.1546666666555291 0.1060833333329853 0
0.1568333333214746 0.1061510416662961 0
0.1589999999673389 0.1062187499989793 0
0.1611666666313629 0.1062864583322301 0
0.1633333332787741 0.1063541666649617 0
0.1654999999187792 0.1064218749974619 0
0.1676666665876265 0.1064895833308633 0
0.1698333332481752 0.1065572916640055 0
0.1719999999019854 0.1066249999969371 0
0.1741666665715005 0.1066927083303594 0
0.1763333332500076 0.1067604166640627 0
0.1784999999387337 0.1068281249980854 0
0.1806666666271161 0.1068958333320974 0
0.1828333333127392 0.1069635416660231 0
0.1872093023096954 0.107100290697178 0
0.1894186046338807 0.1071693313948088 0
0.1916279069489322 0.1072383720921542 0
0.1938372092840433 0.1073074127901264 0
0.196046511614402 0.1073764534879501 0
0.1982558139457181 0.1074454941858037 0
0.2004651162771758 0.1075145348836617 0
0.2026744185947609 0.1075835755810863 0
0.2048837209118753 0.1076526162784961 0
0.2070930232334091 0.107721656976044 0
0.2093023255484747 0.1077906976733898 0
0.2115116278660402 0.1078597383708138 0
0.2137209301915501 0.1079287790684859 0
0.2159302325213148 0.1079978197662911 0
0.218139534844279 0.1080668604638837 0
0.2203488371816253 0.1081359011619258 0
0.2225581395117248 0.1082049418597414 0
0.2247674418340712 0.1082739825573147 0
0.2269767441564144 0.108343023254888 0
0.2291860464995544 0.1084120639531111 0
0.231395348841608 0.1084811046513003 0
0.2336046511545954 0.1085501453485811 0
0.23581395347782 0.1086191860461819 0
0.2380232558159418 0.1086882267442482 0
0.2402325581352532 0.1087572674417267 0
0.2424418604598425 0.1088263081393701 0
0.2446511627618241 0.108895348836307 0
0.2468604650813229 0.1089643895337914 0
0.2490697673871397 0.1090334302308481 0
0.2512790696940232 0.1091024709279382 0
0.253488371991813 0.1091715116247441 0
0.2556976743178871 0.109240552322434 0
0.2579069766388387 0.1093095930199637 0
0.2601162789615189 0.1093786337175475 0
0.2623255812805295 0.1094476744150165 0
0.2645348836169695 0.1095167151130303 0
0.2667441859454595 0.1095857558107956 0
0.2689534882563138 0.1096547965080098 0
0.2711627906046883 0.1097238372063965 0
0.2733720929681701 0.1097928779052553 0
0.275581395321844 0.1098619186038076 0
0.2777906976466865 0.109930959301459 0
0.2815000000053744 0.1084999999946256 0
0.2829999999854226 0.1070000000145774 0
0.2844999999510034 0.1055000000489966 0
0.2859999999473654 0.1040000000526346 0
0.2874999999299716 0.1025000000700285 0
0.2889999999075633 0.1010000000924367 0
0.2904999998900509 0.09950000010994914 0
0.2919999999015493 0.09800000009845065 0
0.2934999999339102 0.09650000006608975 0
0.2969999999888869 0.09499999999999999 0
0.2989999999509398 0.095 0
0.3009999998509222 0.095 0
0.3029999998570208 0.095 0
0.304999999834998 0.09500000000000001 0
0.3069999997763833 0.09499999999999997 0
0.3089999997820754 0.095 0
0.3109999997982706 0.095 0
0.3129999998537682 0.095 0
0.3164999999896196 0.09649999998961961 0
0.3179999999876417 0.09799999998764178 0
0.3194999999544931 0.09949999995449316 0
0.3209999999280954 0.1009999999280954 0
0.3224999999086686 0.1024999999086687 0
0.3239999999074616 0.1039999999074616 0
0.3254999998556276 0.1054999998556275 0
0.3269999998556994 0.1069999998556994 0
0.3284999999182233 0.1084999999182232 0
0.3300000000000001 0.1120000000092327 0
0.33 0.114000000011418 0
0.33 0.116000000010283 0
0.33 0.1180000000050822 0
0.33 0.1200000000058446 0
0.33 0.1219999999961714 0
0.33 0.1239999999598676 0
0.3300000000000001 0.1259999999371502 0
0.3300000000000001 0.1279999999316106 0
0.3285000000000424 0.1314999999999577 0
0.3269999999852616 0.1330000000147384 0
0.3255000000065137 0.1344999999934863 0
0.3239999999714211 0.1360000000285789 0
0.3224999999562507 0.1375000000437493 0
0.320999999981433 0.139000000018567 0
0.3194999999689393 0.1405000000310607 0
0.3179999999718277 0.1420000000281723 0
0.3164999999664491 0.143500000033551 0
0.3130000000024225 0.145 0
0.3109999999822801 0.145 0
0.3089999999004059 0.145 0
0.3069999998641698 0.145 0
0.304999999832711 0.145 0
0.3029999998062666 0.145 0
0.3009999997901222 0.145 0
0.2989999998023703 0.145 0
0.2969999999079275 0.145 0
0.2935000000021515 0.1435000000021514 0
0.2919999999638825 0.1419999999638825 0
0.2904999999183968 0.1404999999183968 0
0.288999999888937 0.138999999888937 0
0.2874999998926809 0.1374999998926809 0
0.2859999999005245 0.1359999999005244 0
0.2844999998693197 0.1344999998693197 0
0.2829999998882086 0.1329999998882086 0
0.2814999999457052 0.1314999999457052 0
0.2777906976498036 0.1300690406984436 0
0.2755813953215621 0.1301380813962012 0
0.2733720929769349 0.1302071220944708 0
0.2711627906318858 0.1302761627927536 0
0.2689534882872001 0.130345203491025 0
0.26674418594479 0.1304142441892253 0
0.2645348835950163 0.1304832848876558 0
0.2623255812615548 0.1305523255855764 0
0.2601162789356718 0.1306213662832603 0
0.2579069765960078 0.1306904069813748 0
0.2556976742362425 0.1307594476801174 0
0.2534883718871307 0.1308284883785272 0
0.2512790695541983 0.1308975290764313 0
0.2490697672478762 0.1309665697735038 0
0.246860464920314 0.1310356104712402 0
0.2446511625831126 0.1311046511692777 0
0.2424418602563976 0.1311736918669876 0
0.2402325579141242 0.1312427325651836 0
0.2380232555832297 0.1313117732630241 0
0.2358139532575748 0.1313808139607008 0
0.2336046509194773 0.1314498546587663 0
0.2313953485923022 0.1315188953564906 0
0.2291860462699865 0.1315879360540629 0
0.226976743952555 0.1316569767514826 0
0.2247674416379955 0.1317260174488126 0
0.2225581393210129 0.1317950581462183 0
0.2203488370073458 0.1318640988435204 0
0.2181395346798961 0.1319331395412532 0
0.2159302323541027 0.1320021802389343 0
0.2137209300204342 0.1320712209368614 0
0.2115116276947406 0.1321402616345393 0
0.209302325374721 0.13220930233204 0
0.2070930230498524 0.1322783430296921 0
0.2048837207540163 0.132347383726437 0
0.2026744184516839 0.1324164244233848 0
0.2004651161349346 0.1324854651207833 0
0.1982558138230241 0.1325545058180305 0
0.1960465115254116 0.1326235465148309 0
[...]
CELL_DATA 4028
SCALARS Von_Mises float 1
LOOKUP_TABLE default
3365595.9069331316 12289518.071687588 166895974.1763657 171109388.811505 153306219.18811125 116127253.948787 138443045.69200814 217791861.25312102 472026.9913899664 257360450.53917384 97311401.64443281 113290801.43383633 121640507.34204748 257182884.20211518 255487627.02417335 182316300.96710885 203769781.81593975 465032064.2485855 466010957.6400379 275234695.21180975 274302673.9605792 8674277.721514456 46417261.14370249 24337809.328457296 273708306.57500386 274970585.7686818 169146205.08176392 169582891.55245104 349662063.27346015 350372021.2035099 8877260.976229494 23826438.699191507 191534215.93459564 172157775.53936997 5784804.09490469 4711814.608390914 77837772.85275796 148050118.7406908 429309987.8772085 147883041.87178612 363148558.9583121 337109566.64933145 365696268.6736668 318442692.3281346 34559599.08273094 315093705.93164945 277674789.7371756 199739883.40165207 204305367.07027045 2163073.78387943 521293064.7614208 521310047.5857056 11396031.939481486 119287133.48777993 404191850.37475944 181594526.0746654 26276402.221302807 4270809.598445526 261087352.81173933 184934667.128666 397993205.09891045 395883690.2883709 297933261.5135554 414335955.9860565 414506305.0212358 78779706.62848343 39996319.49708477 17759022.02240218 103369.23423586146 67713635.1687762 52896487.64200383 311437900.9168786 158246071.207676 3650645.1800887682 198234.11618498334 240885.29470798073 325346040.9031491 24824896.21210194 165376280.11077327 107595015.78264624 112300586.39042763 160984545.40176398 143059990.79135478 155996253.04501918 141306380.49072275 27713891.176708277 27709624.979912594 226898081.63169056 226832329.93339646 4485600.24080635 232069282.21990284 31326912.908169616 31308563.753347352 288037920.853213 288129284.0964533 9537983.77251819 288896720.7006927 5385454.248511844 10211098.235108536 354165422.6296682 355752285.35083634 381367881.9907895 9420586.856843531 9419546.458336787 109600533.6702148 66872181.89052304 501707.5218535066 44261451.3330415 49403943.74222895 4853354.363507702 292292250.2714724 433164.86212153523 58331.86904966183 45460.72269629131 1444605.2542017652 10384524.22283586 10393012.206436612 7147855.435512474 6649590.614003238 6648142.950622039 173927380.38377962 40966265.26199785 1262157.529984749 889884.7434458407 10009899.936363287 330814674.94404846 85945060.96603024 262631512.34394148 6301380.482131547 10983036.466910942 273898057.8864137 64985236.89369042 4129268.0861549494 396701058.99611336 434556054.25552416 4029342.49282357 556181897.1264402 556465225.1177374 50840398.13650298 142236446.84860852 291965354.45150745 285983721.221132 15768228.602612276 222563117.3930506 222644950.65104538 212993113.7439265 485514860.0535266 484378716.3140598 10493167.58623091 521964542.1093943 522876151.98567486 182902.5638589271 182000.702939782 4424671.68119982 6041521.888448236 45366792.1680836 505511086.0199054 505281997.51998556 3286984.539026253 16431210.594414346 16426222.124924295 4743380.754142859 4742706.205148399 17148751.379453804 17152520.826077364 147584961.47688967 18156387.12629987 14136290.47282236 14137862.371553944 58805291.89946502 14249817.376475979 310835582.11764586 310964870.7961593 16365403.177736089 16367046.602299172 4831958.44505499 191489515.45212778 209335424.5107629 223527396.1475714 100713058.20099263 100696159.17132837 115166.42891871826 193006.33859214882 201657871.82379636 196845021.0512456 73850760.47187607 78353140.48610207 259170766.01155946 257692528.66459513 9473746.775231542 141024134.73057455 82161161.6398724 27609.345576798598 163247.81205964286 257896719.0297008 307721388.02061695 92833159.50533573 53500.76622425693 57332.739797698436 311165722.2841741 309345359.54659593 162234844.23045495 165584415.98910582 147149414.30051163 157074241.8848217 152633679.00933814 587106673.7382157 587087102.3421553 643438115.394374 643355094.551854 138495600.10414183 6424381.965628425 47174835.62928082 320913207.7161887 31364823.43352848 5250926.866797561 3076266.5067089773 175222291.67517328 359998703.85628235 360205780.8408601 6657361.719007396 7121184.616167805 7120575.269201539 316243629.92199916 315571927.0736328 6270183.9957401 414010958.74933296 408147217.08996344 17163913.11754927 90856144.76704088 6429174.408782979 86517187.86890161 89837695.2561169 70944404.93575548 16701983.534350196 16704412.416726708 30207967.462734893 195018498.04962298 8378312.416968238 8377594.252188018 196115612.7417913 99289.92778782762 391979.5862156101 129754850.741271 7751322.233418273 144210.54759127772 171395.51984933956 73606586.72954963 224816437.8982622 11473736.733898243 11473143.33396599 77074537.77253325 48405878.796493165 10325965.434032537 26468605.51180063 10423121.704406254 10422873.310061239 177958.54488872917 325089.4136193007 402968.72076638485 170167748.97378296 263232951.05321807 262934948.60247618 90597665.37179577 95781642.63319597 14060265.146118483 479040153.3796799 478288572.9567954 383322096.1405912 384189485.10173094 152735276.6428457 152731343.3689361 298535582.20298505 298232892.4927691 269188199.9741075 269700040.43205124 500467262.5500929 498696657.5334003 2321429.790183616 2321649.001341697 128565995.91889645 205829921.12079397 418172702.4358266 416879347.36370903 93373829.16725087 9913305.625871478 199681469.66310927 57080461.80079282 57086256.170135915 8051395.014757822 3861781.227919227 6521873.535848795 84082038.14332809 360609340.55960315 358085040.5699739 7534115.360497938 274376956.148193 274584892.37198794 14834241.168161934 14832004.168042129 5462993.17335821 5462681.710654259 11407060.141499719 11407245.268392676 19911904.501984913 19916342.10090185 26383062.74836476 42306165.011080414 4102546.915602661 4102320.1335158036 283428091.6973597 280322178.37663805 25858676.85545609 384667.8716319588 284448.1564743594 252396.5080152604 676739658.3983356 677560088.7224662 122199816.5570313 60762014.995015934 60770798.19604389 105316679.60528941 522908906.3656867 523118584.46879935 65841548.82909722 118925860.83467092 128711454.51186593 595231045.8785409 595105896.1376438 35226464.12412112 84496050.68030272 225838970.91951585 113438155.43000735 4895461.675173921 4895964.337390357 280068189.09147257 280483317.4940264 53118901.444729604 19002363.428631786 35984776.256427 346056273.1512953 303808889.21601546 303936632.78009754 83529591.40031719 207038364.05806944 26666013.799478266 188746591.2333738 188714260.63316634 257092156.37987646 391188034.58650744 392028677.43515205 325396051.5790192 324028636.1505099 18944636.70829921 18941178.726111755 5631051.454829227 209161633.9857071 413975158.48457575 407976753.4104935 192397661.20349023 3648031.9507283717 14598606.794565698 50696748.74352343 237492876.55087504 238717365.9548751 46292506.568168685 55247505.2285913 33240501.01020301 33231993.088342283 194598055.5214646 100152.09638203766 8030578.432003446 13282448.160758939 71430204.626694 140076875.3227499 28467.24253322697 19922.45888820517 142734669.51885122 134506710.27604073 224084081.31684706 79955234.9624175 71894045.97117741 77252207.46704872 71114259.68130353 85588928.81867185 93762729.957428 170037160.2135059 103151622.78843455 103167836.34740792 116668539.05524923 199163762.69219425 25576985.69681014 25557521.26790962 5024561.736647495 7164002.543585564 14357896.445954336 186946699.13550833 188396375.67704326 331904075.5395293 331565217.65952903 1813504.0127182223 255451373.82739317 326603607.0253877 387259506.2843015 323491413.99149173 320057906.8381162 285954987.1055589 276010084.2864168 151036825.63874006 18187415.00020429 18189927.169893574 16442570.627475083 44115907.09120528 295384902.2367435 290258788.69159704 312275807.98167896 310528743.32410866 17354094.03540551 82472669.92544799 43783953.841103844 100435108.52622321 32955714.098428324 32952462.86144509 570082.0565244245 185613605.3031089 114094226.5381332 444706048.116291 444508134.03153247 23026627.181700807 101610.87219426068 73263045.28094238 77359312.44955833 46155192.05019989 15609816.485751694 12894075.397159236 1102625.3665748003 1101468.1248105753 76815141.74369662 258962100.04931185 256136216.22182485 24307752.252648156 273672438.75365573 25594801.778087992 99868103.1590685 92962041.03994584 4401863.596817916 4401232.566789747 55156.969724080656 71478.0191246622 5143188.363350713 3614601.224173142 314681421.10573447 385296292.1016187 386154376.3581669 11902410.297706492 131797384.56729046 139084272.19347322 171575708.64844027 167090184.83972362 203138735.7362595 217860422.5915522 217849819.37053886 367527905.2935331 370032115.91719043 39867380.920134544 39877927.52631168 160673201.11046264 98320588.46726438 98337070.33341904 420773023.84477806 419428204.8309044 202568.0885531047 77624.4400630091 249804.06487297278 132071980.19125377 42151808.257117376 45650.508118696984 50625.42785390458 805560.6465397152 320811171.9231671 18664.497433468678 16381.63794410716 33274.1088493332 3007544.90586516 127854658.94557607 44196622.17758173 322282024.6407166 8121856.926788596 2645356.67813949 19971745.788713895 19324219.619968254 19326204.09931205 19917549.92188034 117707001.94488572 62276007.399672285 42094221.9957996 271104903.67170876 275258118.9350266 3687761.459558921 3687306.8935609004 85912601.9996312 52455353.792901434 451388293.01548 373413986.2569638 450646614.85508156 380986134.6244825 121065897.34858458 131441898.43850794 103933568.80282076 116600423.93553515 284404.8107268652 368097.1404392485 9216703.812696714 9215655.162207851 4692939.585086705 9687300.533431917 123721144.56482019 162085115.5190426 211125.06296398875 146498.54231247274 172193.47351489318 67663657.27325408 13553948.411516936 47094562.52841861 52586275.518518835 1949252.862774001 87409059.61212431 27565244.544553198 567674.500619134 143207761.95983666 453950518.68854123 461436257.1006235 9435373.766928738 192071928.43006712 5600270.683360829 5599727.544800081 137822885.637278 215261.26761993827 59083453.887389235 67656379.4114125 172883192.20745397 251402183.19449422 246660437.64475256 30736712.09908764 3645137.8392147115 34451974.247966215 52937342.70092587 319911930.0459448 188968494.13429645 160317385.2358333 41377851.44951011 46434654.400778614 8027711.684751944 26295686.612727925 4381260.2642844245 162986.43414551378 146445.31446114922 2055.6781244541053 37271712.064764455 15700450.90228864 44024.335744201926 50082.27681281093 77770.15123469489 135990998.77662805 201585425.48070785 240646545.05000806 241460531.4247921 30828783.513009645 30826983.628959253 251325983.58328578 3830855.7378217936 3830386.657923295 13395323.614981718 167689940.14847502 162390338.3806171 67186.55945956748 75042.77006646372 31408057.990869816 19279617.618827302 9943654.14992827 137757026.43733272 6787498.581151238 173272134.51346725 166716023.05685708 260571387.7367564 256388650.0748859 190152377.10985157 177667147.4444252 32046603.197125424 32045733.932656277 139723215.4934795 126965281.21442595 127016980.60486284 8380905.745563957 11747770.680515988 11746189.781575242 4894094.220538068 4893601.444639747 39528500.55025083 191650094.96249172 192397072.0124777 93536564.90169717 1058346.6806569432 21267060.927357025 21271876.10334548 7190545.638596675 6479761.50001331 6480482.152204876 6431806.076826827 6432396.900867842 66959834.88631516 113625969.05678357 353167611.5855101 418943811.33782643 1890435.1515855584 293189043.8144839 289737474.78069025 68501897.39722177 258648797.27200413 202360692.97023913 62688491.265847854 46231.6179452464 55739.00904249669 404690119.7405216 402337072.0350732 154361952.43188545 120377.82029658402 351683.45437397965 33668.91955601065 49775.41346473835 215225915.48935816 209951365.12506434 67152670.68645431 17879114.277394626 103158453.36639406 15286.874547213893 25746.47940784485 37163.591179270945 153481.14171404898 36898.87073913007 173473.20641043063 494912687.90764916 494019302.2659413 96483864.31039396 97017409.67789914 193392.74436733153 146751.91967825784 138792.32968184946 245579170.0030532 17840095.95887304 23139259.68586022 823701.4582836786 293228.77929540066 96183494.89492634 42250610.95056916 39244943.33854137 39243231.96431921 16106797.556413274 16111066.299277904 34008506.86127119 39107309.29120147 28780380.961415824 33652067.79056956 5257286.34493613 5256682.990865139 111367921.28954539 23260990.11451139 195637827.22696203 194541758.7440779 347528242.25455856 346206481.7829023 184665873.2724579 143458.37519637175 161182.5229759658 21996170.051415056 260680822.1441473 262829743.97112715 1483105.3551780316 121108897.8319871 160779885.51981103 69153305.48047501 65419.83073716638 217096616.8791681 6864080.46855212 11115219.477213973 33977234.19950089 15012414.86007308 208172306.83777598 15388508.094975911 15396000.878594594 8714030.08361079 233102506.78525358 232682796.9401468 174928464.85759932 5238968.261454569 5239461.511645367 44802798.99780816 38842168.52069714 208730054.45250076 12900377.791774811 12900026.137327494 125407878.64092445 13805268.839529952 60385098.1343151 328262352.50633276 326105744.8650701 15725587.291862978 15722503.643221792 28212.29077062454 25477.074128518292 15701.61788712057 32604.693605631488 22590928.447539307 18701.534039633527 30212.435650295236 19815.220223026932 34188.049016566336 62604374.39658522 3127484.5130554447 14118275.181774545 14116059.534196766 35183201.83470773 300724036.99261445 299137915.42372006 10051609.048870355 125800281.99591428 11654275.211188538 11654414.988135781 68216020.08008766 2594804.6924512726 119079965.3193935 5934064.779016498 178546754.15978068 229375213.1138562 233868139.187797 459270263.8112064 463560854.354249 957330.2557469468 217723723.32707953 63572501.3212914 16792777.382975407 197024271.9273925 294743.23507080844 108554711.0304055 13513876.433728978 117765231.07356748 64592816.745400734 114873639.42359653 185033175.9949534 3217630.7896997007 250842.56203064127 117009580.01796202 368275643.94575673 202656030.50522316 12905565.21723501 12907274.515356291 62327521.92066009 431471946.36225474 433557448.24825084 29445637.843613356 29446768.96760422 196113116.7485502 6618088.331463945 17625117.93751725 129964657.16153172 119586814.93769181 7087759.192179462 7088562.747531245 113530451.32704502 108269557.18655118 120682370.64956194 2132690.9032038017 39311784.2009051 88012430.48119943 91423130.0985442 319980676.99943316 177751537.7048529 181416067.6939863 13559781.179255418 4621777.756517712 113849818.36422993 410795099.7728583 53368452.1776368 161609666.2375497 155989668.44894472 69107615.09842958 193881738.83593744 20383403.291110173 20384876.799870733 2740043.030796094 2502337.1284366236 154541386.69402966 148545808.0498763 96084192.91672267 100843286.80348474 586008734.7956026 586468000.0987571 58959929.98068252 49665844.85434081 54800249.09246492 230180476.28510556 225953360.76922023 179105200.57132083 38593371.35982806 15022483.081685884 15036046.184511138 110309635.79551041 453050561.2694566 453406379.94963574 55828396.60056133 39466969.98811235 45313192.39948105 33449732.049579605 38471798.1004011 360421903.5235428 359179616.56093097 35134559.69913999 35147908.687904246 56847189.39419167 129229549.74908479 45495.17052605708 17162.622886047873 31695.248222947892 40326.05405096606 21931450.88266094 34542304.637822405 228145671.03021201 148385407.17163968 155091329.83603758 27587624.48715594 32931828.349987917 35923057.15425924 35907576.83536724 256102075.7318598 176989.03172131072 135306.48148327362 128716.51744412963 12758050.941242913 4388984.825441354 20683161.117803436 20684153.321950134 161196593.26875183 134670244.02943593 130733222.9500603 16145608.690932387 143501294.06605724 116459046.48649958 115815291.18314911 28307179.17659734 8712478.367383067 13231168.851296296 221604962.5903335 328374379.6750375 3188539.8661304475 138117563.89377993 46972242.511548184 4380220.300185309 112507177.35746612 76864.96945665801 196220.9455890129 150661.28048118815 109893483.1518681 168935.26487025226 471547534.359381 470560404.57879543 51307325.42340116 179233.24028780576 197048.75159796383 470138667.4755177 470045812.4383405 202645.13936772608 108760656.27047083 108748353.83735499 217797330.46620637 161858619.44561905 262136.65703672214 454798945.6960844 452593053.11151356 453405948.4855402 455137443.2097203 585658395.4589932 590163811.1271638 202786938.49824566 208567347.15247902 38752946.47461629 2810423.342697937 588464.808385744 109139325.86427402 228314.76084744427 86828.20700860856 178023.736527566 44624289.33476646 122499280.9649477 336564273.84990275 3585746.0629136376 3585192.649788036 517238.2633354857 74746006.33412981 165121145.130179 9634576.053165719 331025409.8450953 218629162.72013763 208595936.89735517 204029123.6420478 389406441.5709108 81735.91115011295 256535321.1258556 251390246.6540806 213830767.3615825 209128068.5538039 373715478.5520419 415222.0966566041 241049.12529973226 150990.7385048327 182829.01651104898 11314762.76565592 11313525.864076426 28542677.724610925 72469947.97942603 128944645.62005824 7463237.134031997 3851814.4983703033 2966368.524102331 101288479.6569005 75225875.40015084 64421043.8882916 88301583.34316137 202209852.22508898 96239005.88169964 105302.37184140373 47371190.36337359 52376093.27188099 20272329.47059391 116714852.67765579 116687457.22250548 250034410.41214678 7826781.030344174 7824614.239479407 4066126.014071166 4066506.249872523 161211.09969311685 140837.5104917028 41971.21102193146 40218.15178817349 29792.255992646442 20986.804323362034 63491758.72378071 218575558.77001515 64257082.677864194 9000485.938551968 8999551.151406743 268153965.1549779 263716607.06237048 43400798.85030173 43403300.79220854 7677598.498111137 13898556.481384052 104629763.26653357 221636713.02563816 221683223.232235 228345539.80799717 227455600.53617558 386910184.9967892 383222405.510691 362781105.1622074 208407.48994156846 180931.44474645224 29183.07704089826 61417178.33075835 66592109.46044032 10325700.705443025 60637115.280354224 60633591.79359292 300757846.26777273 51624614.36455755 1755150.9821043168 21227617.0394809 273616637.98127395 269551788.1949661 772266.9343790787 55045161.1743097 39905043.918805644 8746490.396645758 6598981.844697095 49175209.88365268 54471003.44974071 157523599.18092522 41153599.41280584 2113686.2929032706 86986578.3009393 43867489.70155595 43869474.457035534 20530647.45697354 263892.67877563514 132935838.51770195 257825038.65143928 109727321.3602219 113052753.2347821 7800501.984796377 189941426.5541965 188405712.74035096 137987538.02849942 131060334.32328916 204893619.97211766 200185657.68044108 5170332.681050834 5170876.341532757 376714516.8152533 3844402.4477233156 16188092.984324314 16765580.506224364 16768159.538216738 60638747.6460345 269637233.163822 281892121.2659531 265446063.47251013 261259913.3166734 308646221.22118366 15281004.353570636 15280340.805259708 329519492.0671362 329436498.77357775 813584.9620023171 99223765.69045167 125391205.91652529 403292835.3147577 403486661.83764195 129118501.80777761 125658647.21119489 237900484.9410277 234897986.5723825 46403587.465338565 32907493.374834143 169368472.62278745 182818670.11759838 13808278.828666285 14885782.889068639 5823005.726638784 119800627.91719536 9996034.55811018 9995433.144453064 11539191.060631374 7878071.458340018 5151249.038516178 1463026.3397993783 1457491.6552735956 116897092.53726506 97791558.0757276 297924395.0797541 294315293.90982574 93382554.52988443 90876639.49034376 5628538.09054165 5628030.486076407 248070004.40417102 247785211.44329378 398242322.48949736 61875710.98886481 83284366.73487727 61009191.43397753 165911.74723559953 194746.78324014635 35480.91577775443 87209.71743532004 176769860.8788288 87014190.78167781 65638453.105924554 66759373.85773797 6090740.378959993 6090153.425949536 224345179.82121065 228686046.50559142 182004.80136512013 148322.56779300547 47943.17736243635 287988557.09916013 165462.69479298496 185318.63382705586 245245242.74496442 9193298.462632608 9194227.61179611 83595334.1755188 86063136.81296115 63517435