# vtk DataFile Version 2.0
Really cool data
ASCII
DATASET POLYDATA
POINTS 2430 float
10.0 25.0 0
10.5 2.5 0
14.5 2.5 0
15.0 12.5 0
20.0 12.5 0
20.5 2.5 0
24.5 2.5 0
25.0 20.0 0
12.8125 5.0 0
12.5 5.3125 0
12.1875 5.0 0
12.5 4.6875 0
22.8125 5.0 0
22.5 5.3125 0
22.1875 5.0 0
22.5 4.6875 0
12.8125 21.5 0
12.5 21.8125 0
12.1875 21.5 0
12.5 21.1875 0
22.8125 17.5 0
22.5 17.8125 0
22.1875 17.5 0
22.5 17.1875 0
12.5 15.5 0
20.0 15.5 0
20.0 14.5 0
12.5 14.5 0
10.00806451614194 24.63709677361278 0
10.01612903231258 24.27419354593386 0
10.0241935484938 23.91129031777878 0
10.03225806461129 23.54838709249173 0
10.04032258071191 23.18548386796397 0
10.04838709682194 22.82258064301263 0
10.05645161296179 22.45967741671925 0
10.06451612913326 22.09677418900329 0
10.07258064533511 21.73387095991988 0
10.08064516149915 21.37096773253857 0
10.08870967759623 21.0080645081696 0
10.09677419375892 20.64516128084849 0
10.10483870990822 20.28225805413003 0
10.11290322607429 19.91935482665694 0
10.12096774224832 19.55645159882557 0
10.12903225841202 19.193548371459 0
10.13709677455406 18.83064514506724 0
10.14516129073117 18.46774191709723 0
10.15322580686834 18.10483869092457 0
10.16129032303272 17.74193546352748 0
10.1693548391806 17.37903223687297 0
10.17741935534539 17.01612900945749 0
10.18548387146244 16.65322578418995 0
10.19354838763403 16.2903225564684 0
10.20161290381374 15.92741932838155 0
10.20967741997008 15.56451610134622 0
10.21774193613836 15.20161287377394 0
10.22580645230157 14.83870964642906 0
10.23387096844209 14.47580642010597 0
10.24193548458432 14.11290319370539 0
10.25000000073421 13.74999996696068 0
10.25806451684794 13.38709674184244 0
10.26612903295814 13.02419351688371 0
10.27419354902925 12.66129029368375 0
10.28225806511086 12.29838707001138 0
10.29032258120948 11.93548384557348 0
10.29838709730668 11.57258062119947 0
10.30645161342799 11.20967739574034 0
10.31451612954823 10.8467741703298 0
10.32258064562724 10.48387094677422 0
10.33064516174957 10.12096772126913 0
10.33870967784367 9.758064497034947 0
10.34677419397089 9.395161271309828 0
10.35483871007663 9.032258046551387 0
10.36290322617298 8.669354822215917 0
10.37096774228375 8.306451597231394 0
10.37903225839794 7.943548372092563 0
10.38709677451733 7.580645146720181 0
10.39516129059989 7.217741923004883 0
10.40322580666075 6.854838700266257 0
10.41129032276591 6.491935475534158 0
10.41935483889413 6.129032249764203 0
10.42741935499985 5.766129025006942 0
10.43548387108066 5.403225801370201 0
10.44354838716179 5.040322577719254 0
10.45161290326106 4.677419353252181 0
10.45967741938996 4.314516127451607 0
10.46774193552708 3.951612901281566 0
10.47580645160294 3.588709677867938 0
10.4838709677258 3.225806452339046 0
10.49193548385171 2.862903226672901 0
10.86363636397148 2.5 0
11.22727272776948 2.5 0
11.59090908917042 2.5 0
11.95454545068175 2.5 0
12.31818181403819 2.5 0
12.68181817915301 2.5 0
13.04545454194173 2.5 0
13.4090908986116 2.5 0
13.77272726213363 2.499999999999999 0
14.13636363138024 2.5 0
14.51785714288412 2.857142857682448 0
14.53571428574426 3.214285714885328 0
14.55357142862196 3.571428572439232 0
14.57142857151165 3.928571430232919 0
14.58928571437537 4.285714287507488 0
14.60714285724751 4.642857144950152 0
14.62500000009455 5.000000001891001 0
14.642857143032 5.357142860640115 0
14.66071428594258 5.714285718851571 0
14.67857142887942 6.071428577588326 0
14.69642857180077 6.428571436015462 0
14.71428571474886 6.785714294977167 0
14.73214285764917 7.142857152983446 0
14.7500000004943 7.500000009885979 0
14.76785714328319 7.857142865663754 0
14.78571428612831 8.214285722566284 0
14.80357142896074 8.571428579214821 0
14.82142857173971 8.928571434794218 0
14.83928571444931 9.285714288986206 0
14.8571428572153 9.642857144306044 0
14.87500000002409 10.00000000048181 0
14.89285714286733 10.35714285734665 0
14.91071428569972 10.71428571399456 0
14.9285714285493 11.07142857098609 0
14.94642857139116 11.42857142782311 0
14.96428571424643 11.78571428492866 0
14.98214285713977 12.14285714279527 0
15.3571428591223 12.5 0
15.71428571719138 12.5 0
16.07142857423201 12.5 0
16.42857142974857 12.5 0
16.7857142846084 12.5 0
17.14285714112862 12.5 0
17.49999999772317 12.5 0
17.85714285297952 12.5 0
18.21428571083795 12.5 0
18.57142855939082 12.5 0
18.92857141386655 12.5 0
19.28571427430228 12.5 0
19.64285713574168 12.5 0
20.01785714292029 12.14285714159426 0
20.03571428577939 11.78571428441216 0
20.05357142862984 11.4285714274031 0
20.07142857152504 11.07142856949918 0
20.08928571434997 10.71428571300059 0
20.10714285726139 10.35714285477221 0
20.12500000019564 9.999999996087139 0
20.14285714320795 9.642857135840998 0
20.16071428614276 9.285714277144802 0
20.17857142904537 8.928571419092558 0
20.19642857186783 8.571428562643403 0
20.21428571479022 8.214285704195643 0
20.2321428577479 7.857142845042126 0
20.25000000069735 7.499999986052996 0
20.26785714347055 7.142857130588933 0
20.28571428619271 6.785714276145805 0
20.30357142900126 6.428571419974752 0
20.32142857178615 6.071428564277086 0
20.33928571464426 5.71428570711476 0
20.35714285745924 5.357142850815163 0
20.37500000029276 4.999999994144766 0
20.39285714311046 4.642857137790787 0
20.410714285854 4.285714282920003 0
20.428571428706 3.928571425880045 0
20.44642857148773 3.571428570245412 0
20.46428571431238 3.214285713752382 0
20.48214285711565 2.857142857687005 0
20.86363636516213 2.5 0
21.22727272581398 2.5 0
21.59090909243092 2.5 0
21.95454545450997 2.5 0
22.31818181891514 2.5 0
22.68181818017414 2.5 0
23.04545453949341 2.5 0
23.40909089990082 2.5 0
23.77272726283935 2.5 0
24.13636362860863 2.5 0
24.51041666667252 2.864583333538364 0
24.52083333335455 3.229166667409358 0
24.53125000003504 3.593750001226702 0
24.54166666672229 3.958333335280106 0
24.55208333340738 4.3229166692584 0
24.56250000009479 4.687500003317582 0
24.57291666676292 5.052083336702424 0
24.58333333342993 5.416666670047649 0
24.59375000011929 5.781250004175338 0
24.60416666678541 6.145833337489197 0
24.6145833334717 6.510416671509586 0
24.62500000015173 6.875000005310423 0
24.63541666684382 7.239583339533857 0
24.64583333354729 7.604166674155124 0
24.65625000022954 7.968750008033958 0
24.66666666691629 8.33333334207003 0
24.67708333359532 8.697916675836199 0
24.68750000028001 9.062500009800464 0
24.697916666944 9.427083343040039 0
24.70833333365369 9.79166667787921 0
24.71875000035885 10.1562500125599 0
24.72916666707987 10.52083334779526 0
24.73958333375135 10.88541668129731 0
24.75000000042991 11.25000001504697 0
24.7604166670681 11.61458334738357 0
24.77083333369809 11.97916667943294 0
24.78125000036938 12.34375001292839 0
24.79166666700398 12.70833334513953 0
24.80208333364604 13.0729166776115 0
24.81250000030942 13.43750001082962 0
24.822916666971 13.802083343985 0
24.83333333355412 14.16666667439433 0
24.84375000015083 14.53125000527908 0
24.85416666675838 14.8958333365431 0
24.86458333330886 15.2604166658101 0
24.87499999988007 15.62499999580261 0
24.88541666655004 15.98958332925141 0
24.89583333319863 16.35416666195201 0
24.90624999980522 16.7187499931826 0
24.91666666644808 17.08333332568263 0
24.92708333312806 17.44791665948182 0
24.93749999980001 17.81249999300037 0
24.94791666645933 18.17708332607652 0
24.95833333311969 18.54166665918899 0
24.96874999985664 18.9062499949823 0
24.97916666655788 19.27083332952599 0
24.98958333330658 19.63541666573034 0
24.65909090697006 20.11363636434331 0
24.31818181387862 20.22727272870713 0
23.97727272112545 20.34090909295818 0
23.63636362933978 20.45454545688674 0
23.29545454074166 20.56818181975278 0
22.95454545175678 20.68181818274774 0
22.61363635870555 20.79545454709815 0
22.27272726938004 20.90909091020665 0
21.93181817642107 21.02272727452631 0
21.59090908415283 21.13636363861572 0
21.24999999070893 21.25000000309703 0
20.909090898365 21.36363636721167 0
20.5681818062032 21.4772727312656 0
20.22727271532826 21.59090909489058 0
19.88636362288735 21.70454545903755 0
19.54545453222531 21.81818182259157 0
19.20454544067146 21.93181818644285 0
18.86363634917439 22.0454545502752 0
18.52272726008306 22.15909091330565 0
18.18181816691119 22.27272727769627 0
17.84090907624678 22.38636364125107 0
17.49999998161302 22.500000006129 0
17.15909089129634 22.61363636956789 0
16.81818180107666 22.72727273297446 0
16.47727271035784 22.84090909654739 0
16.13636362113641 22.9545454596212 0
15.79545453028867 23.06818182323711 0
15.4545454400335 23.18181818665549 0
15.11363634812483 23.29545455062506 0
14.77272725866684 23.40909091377772 0
14.43181816866006 23.52272727711332 0
14.09090907805834 23.63636364064723 0
13.74999998745307 23.75000000418231 0
13.40909089754563 23.86363636748479 0
13.06818180839043 23.97727273053652 0
12.72727271853859 24.09090909382047 0
12.38636362812021 24.20454545729326 0
12.04545453791708 24.31818182069431 0
11.70454544876188 24.43181818374604 0
11.36363635991656 24.54545454669448 0
11.02272727049761 24.65909090983413 0
10.68181818161208 24.77272727279597 0
10.34090909059876 24.88636363646708 0
12.7209708686998 5.220970869541787 0
12.27902913024896 5.220970868490556 0
12.2790291313002 4.779029130458213 0
12.72097086975104 4.779029131509444 0
22.72097086840513 5.220970869836465 0
22.27902913044831 5.220970868689902 0
22.27902913159487 4.779029130163535 0
22.72097086955169 4.779029131310098 0
12.72097086902355 21.72097086921805 0
12.27902913070156 21.72097086894315 0
12.27902913097645 21.27902913078195 0
12.72097086929844 21.27902913105685 0
22.7209708691208 17.72097086912079 0
22.27902913087921 17.7209708691208 0
22.2790291308792 17.27902913087921 0
22.72097086912079 17.2790291308792 0
13.0357142863834 15.5 0
13.57142857334916 15.5 0
14.10714285783675 15.5 0
14.64285714470339 15.5 0
15.17857143070267 15.5 0
15.71428571720997 15.5 0
16.25000000702564 15.5 0
16.78571428904744 15.5 0
17.32142857412979 15.5 0
17.8571428511085 15.5 0
18.39285713616606 15.5 0
18.92857142211578 15.5 0
19.46428571101452 15.5 0
20.0 14.99999999601014 0
19.46428571160309 14.5 0
[...]
CELL_DATA 4558
SCALARS Von_Mises float 1
LOOKUP_TABLE default
56340698.304298185 5615918.849950472 9585241.4549023 31361076.68192539 25742121.926042274 41018160.68177058 76297491.59341274 40029280.530583695 40312793.294499665 5357527.059967295 18823365.74212739 18461675.522662796 16465897.31101392 20808971.828058314 38577158.520741686 10694652.239102751 21979382.887174 27077426.736879654 31703520.60834124 37582571.348962665 27742950.731129024 2196512.3041824284 23074443.04359282 31523253.656489722 31978214.344023734 33953660.6588397 38207105.97738856 39342005.24596972 60005611.346703656 34979756.31900481 28526680.962608114 46275587.80452569 43517275.92768666 7295278.400249624 7645050.444885738 15990226.977477562 27930733.64139093 37740682.02012968 35441234.50275802 29618132.474901795 37338112.45419126 42079416.23705722 34609620.619465694 32855171.780153092 44636459.50898633 37808451.04125496 6258914.04018717 1290827.1690524567 30233693.601983983 24702504.52581318 8988228.224402634 42776755.55713788 34253148.181290336 37336246.0324403 24391999.85646503 37056051.572377436 17722309.84849717 17944979.69855729 40175640.25898478 8756658.305265281 31463788.390807476 37838429.53831105 25323370.70317316 10100472.478321586 9032681.72462423 5503096.7593690185 10181995.263643077 34689825.269271284 36363993.44059026 36593109.874380745 14676594.747669218 11600513.35930857 37785871.643955156 87612675.4343258 11564719.728819428 20708678.638970118 18735303.83073538 11280554.76346361 7148550.283378712 27561846.136426248 13526908.439625826 17540005.718782056 32832418.06179915 38500841.94267924 38271221.68574697 25018250.984006148 27503518.01305829 10983160.322458163 37146500.7681345 37912475.747413665 8884299.645276781 10264898.967907714 32841496.507900774 34066499.987842344 36910021.77221118 27361190.38959075 40044591.76657172 15227729.51233367 39503168.719100334 38683766.84654933 34642933.122099586 31968764.08840118 36899562.69966141 62142777.53960613 8990230.415223408 50471708.97061419 8677346.545080528 14854894.882570965 35560507.11533629 10476584.05424927 35175568.691509895 65732.25297808321 35510981.79654024 32851687.138943233 18045135.46576179 25597055.331247516 50198454.2123115 40829243.14289701 35634634.80253351 37641171.99541447 36124503.38412524 30308357.33397264 9529671.377885003 42712224.58627968 40919553.91446674 20163604.62713037 14773803.104930121 24018646.451136835 40075925.11167481 41849646.2284507 23414693.336272854 35516968.95258949 38229636.87915424 39552980.559484154 37136220.76117803 31148636.512429252 19575528.964828975 31982570.712988786 27795941.17437339 11941873.381952222 38039354.825207666 41457998.489707254 63242038.86044838 23383467.06844463 43341337.02318952 31677932.142995875 11469218.899390094 39643467.13098274 33992938.920270376 8635998.542672412 8144000.488590183 25794663.220914733 15090864.618935555 40071668.11488271 1139735.2462101455 35448957.92879642 30989412.316843428 32868482.968521487 18265363.9282095 10212616.933086539 27481933.94622301 7327259.969137506 38617446.88108084 36405798.439766444 38286797.40022857 30988221.897538885 35530283.2843524 30676058.044291925 21269969.794218462 33271663.552336562 34149757.13307933 35899987.718662485 35876462.51225781 14277117.673444599 42170043.595682584 16043925.804654857 10136613.806592165 23065670.02627909 14414638.29324452 16033370.356689058 20411739.15587929 20461135.7090633 32391838.278860748 11186789.454858227 24091005.747238316 37620752.47353144 42876824.32187579 15363555.119954225 35178171.29685683 31717382.71339202 35552857.23975454 22836761.786242176 22924153.015585925 36531519.95517084 62862877.05793947 106031925.42399265 33905693.222378634 31011746.78431495 3472271.7564875754 40100750.09002516 19852317.155369096 38871273.3188608 7876093.844527779 3955024.346430695 30235098.09338998 34519465.02165097 8081952.035176288 27152606.43220439 27873697.894586623 1016963.5088237784 40513888.66922183 71924650.2941265 9151612.33293921 38353560.62858501 30326087.949788906 34305539.61488812 58621950.98825521 5491479.075950859 35361919.9135718 43021804.460018545 6438880.691905786 71589129.4791087 14036314.661206393 43407101.01119957 21110858.11523318 46538224.00575775 22843096.018329717 11970801.55790412 46714912.07124753 13211268.480793133 33089944.993173152 30410331.699409276 34373673.02442563 5033068.991017674 30889844.820260786 36962771.32951255 33803117.05421455 31859283.893349502 19792764.58458194 43513865.24318019 25023524.895179402 40194281.56251552 33803104.88370518 20551287.80716182 1758898.8399822803 36524925.015316404 30118809.11985138 16534638.824168442 5607864.211927686 25358974.637184374 34622983.51908956 38367570.54134515 11347950.407615263 33521154.341094244 74297225.63683589 23679226.27557221 36032615.328068286 20990258.230253495 6832694.803605182 33337992.49664595 30128926.58428184 5095073.189355942 45815271.33114238 3927380.45304938 23371448.866642848 20177882.401096325 40487924.90203882 35031061.41101271 30143872.845187943 21620551.492864486 88669646.94621158 24661971.254654024 1286129.935976099 35736926.12294433 36417637.21673314 23286044.762408875 10250385.174088022 31008575.154041234 1954726.6378773744 12652236.644635716 34111447.700449936 16734841.989933886 18211239.738429364 40970098.4236851 35863033.16195779 41836997.992416285 7522085.299217154 16327696.345843269 7306785.5977580985 30782973.794053983 24295459.876860473 5969585.914019382 36202581.7598825 8019112.601739996 38445777.715305574 26410032.814543135 56420824.87858937 34727375.84825616 35711713.81438497 15880256.938876398 34709274.53164122 35786964.64332246 16817942.24204511 10107677.479666036 55386331.52240126 33215250.483980816 39674034.17234117 37271295.632556766 12492560.448723225 20375241.122701857 6176397.368674257 12772915.471537495 27370124.201235093 23609193.21363448 45442486.465406194 38377885.61100664 87843184.12944175 35168139.12344725 20744344.978172984 42126898.92002917 34204960.99291242 37610901.144279554 32050640.491034344 6191592.367501639 28338368.936549615 39811026.15112628 23688127.16645275 31456513.480085302 21516147.103915352 34456280.427437834 10366194.862679426 33939043.3486079 20885807.605536133 9878769.579832833 36717635.763314344 27963992.877179924 47755252.621720634 28232594.353027172 38020504.13838498 38913080.25630318 3022622.141252566 3607348.125553877 53005789.06682985 10170393.548751479 30551407.244411483 38203616.1996582 38354268.83100228 19987416.741643198 17848637.027826257 37618282.03693191 5158028.635108968 35398725.77277269 3391431.222906633 8742207.077873986 35106301.74827682 32705341.233418226 12878350.9260334 33769713.4299754 26934619.13653913 35100234.09783881 7561025.596676823 46095937.94174255 11391785.741310932 35248614.1835417 53212442.01362123 26887831.120494723 36609014.73768587 37626302.03997488 26374222.653948333 22601932.28661615 53763864.99589654 38132560.787760414 33063859.774807435 28957425.18944847 34263829.88580874 67626851.52931526 12800889.610207777 40706860.87507209 62133349.858750984 10646906.741177818 2234948.596465002 22484273.225042503 26275283.874940123 37815997.42233467 38584497.757962964 15143888.295300238 23065596.18332095 23916441.120160565 34433299.43146975 147631874.31828475 25489528.32502502 17812380.92205286 5519218.068355815 35314749.802198954 27083536.413559504 39822990.23437339 37436555.383956864 35707422.43477816 29993122.68582971 31532864.56585419 52969603.816077076 11353064.932682335 21044198.942409616 64957830.37779397 2280843.3053720766 12813679.56727934 19993668.518713765 33664457.05491285 14879406.021257425 22884180.19689637 19409453.182395127 34995571.471624985 21999220.646542434 20099454.890873414 28603661.97266581 31140718.379737824 17448070.54587652 117001885.67021729 19439115.82347127 19375112.395979952 1573634.6396784189 33550913.831680004 24056539.448174637 40695544.432971776 31781806.882723887 10404566.828254484 20454381.01672735 40018445.76177559 25274883.528846808 16340834.015904563 36621399.537535176 15050110.6973863 41593156.29985471 40030323.99726212 35045693.75284658 37890611.37211119 74176977.27167892 56412235.89354563 15499629.099657843 39549914.804610275 55179077.81784358 6751854.587689272 30972479.232234634 23061748.33283894 33723309.18006687 7516680.662639509 6053078.515778323 36179912.40863684 37275789.55670608 4568515.907355718 33453159.46015743 21252399.40721393 30453990.65627969 12390567.279015673 35432238.151926935 53025597.00126091 36494706.05505156 18071547.07411953 28899587.824939374 9394293.702716129 35657717.421360105 36662391.02143132 32274498.02572472 33329722.903143957 35755510.554544166 82937522.22904845 22762257.70210031 42827919.70292177 7214370.880212665 2838014.104491378 21670922.24622271 38358497.51932319 34003817.70253739 27437893.362732854 31306699.07704234 32018672.87517215 34186690.91046122 7420514.809303492 49380665.233589575 17357260.87420506 34005242.359150164 55459695.39059503 6966871.701140773 38820428.94209899 155632.03333430534 28054617.83561287 31415899.113516077 26799178.962450653 30692044.093798794 37537428.11602424 13370454.50342067 41600306.202766515 8702777.027947465 39659688.10469262 35116107.85658126 30531227.182179447 25868407.929184385 36821195.682230204 30714132.92860657 51565081.09794631 26185578.52963289 37614997.82595466 13039695.055423686 48792887.05506461 18558306.537797403 11544500.879618518 68733761.3296437 39065049.428470254 20622290.825648263 38908509.68645011 38058412.96693729 31380375.917474393 38814690.896899246 28461005.665558416 36315249.669753246 25166099.15520238 23279214.032922335 27758087.09438672 29538123.352298137 10290976.659738785 37376394.9617906 36331506.012745015 23241815.046704065 1799457.9715430595 17590430.52260638 19109201.647740394 5281745.093371578 18534823.36054491 22307912.58852154 26822547.039690915 23979354.646071825 2957315.508974541 36389641.49061145 17960356.707320087 26708441.878058594 33065603.98076364 9542919.358149897 17259993.742904212 28503270.62598734 16195063.988837061 24587116.509406485 18010314.1907199 37703735.36100869 43745523.78079712 10323206.048449103 10323206.048449103 18452534.757177617 20631750.144151174 30777567.953780267 3343397.755358545 31740974.165275387 9139714.331537873 19972424.84794658 43141020.04996946 19614301.88598261 35080302.68566388 16456380.95043362 37513985.68019809 33083234.53780268 38214542.66985269 35483777.24212253 39708479.09666424 14422944.693393417 34973436.03348008 41339645.40978477 38022496.818686806 33032969.961608987 22267653.7598358 278360.54518639034 21588700.0364701 33107536.096135013 35916831.8428925 57144102.77769142 2359427.5719315894 36085361.63139753 46300631.03993692 34067518.1383639 37968874.853432484 25726268.103900135 18366289.30867159 25330030.58903631 39470585.65162906 37536297.32209731 43165707.24169947 38484671.94306216 901290.8842804913 10613064.663966892 36669831.891464986 43240562.25651265 12543401.491006004 37202232.87716531 10683360.689425742 37402143.817052 6999921.344249904 9107057.365276162 31941059.635534965 40521708.46470333 37073368.10940963 33455034.900704894 18066914.28997441 29151694.25630774 7020076.928891776 9246417.595493916 34327733.3989394 30507031.663937077 40734307.97404556 26722740.29803387 45748898.8649138 36603140.50827215 23285814.53287509 4680486.71596701 35276903.146281555 11329078.92857381 34694121.405961715 29399308.410105083 42300103.82892114 6852369.135577565 57140674.4496854 4743041.504486038 17935821.35863569 51460963.68780898 45382319.99170416 29105281.958283287 64679376.97729764 32823539.245788515 31615662.978652548 48026146.54197163 37812717.35229085 37805354.87740885 33187704.388609145 36821554.37310774 18380113.648880817 34021154.0181165 23736693.253378384 30877438.099121064 17539111.089113835 37622692.66375867 30504947.67394475 1680580.3440316014 11070174.927151725 38543241.29881139 14181568.44132546 34633506.78121231 47326947.368821934 39845937.69792058 31103933.12371986 15594259.355134245 37324239.84481157 36102655.36832296 23217005.250555046 45366101.45004713 22835076.356130242 25009014.31931845 17600964.63733808 18456017.904170237 34341104.162585676 33958260.047001965 26236016.752693668 2389407.759685105 83385719.18454422 17730482.428213388 74927032.59251776 37446353.80170972 36106511.23538751 37900141.5456245 49743972.74359703 38853870.29248345 31515450.000394244 22018123.469089538 10613153.734308712 28098383.24035675 5937720.186695861 29476794.299190223 37609683.27028038 20845706.254672118 14142411.622245593 37833742.21752594 3964565.9784600316 18989110.218873236 63859798.06224088 47566617.333877765 30409751.398279835 37685456.238050774 42249901.38208083 35777553.27019095 16082086.356940784 38702131.02431099 39653769.79241734 42892767.23755283 32353069.706578057 29242461.849980064 7749290.632560164 31855969.37101617 24457217.08782574 32703366.235400114 21916095.085616212 4931830.385393588 20678568.618064746 14236383.693303367 33962288.41048949 22660998.64339967 6822253.772645705 17060199.338004343 22089854.18920393 13398290.877199048 36044374.62262641 37922394.866678804 36253780.27063161 29674856.665349815 22918661.321377236 36658903.05602001 18959047.51921237 28283546.8186985 12924277.969259828 32036729.210470542 2518661.943146132 34222107.19845209 38726966.10815803 33773243.13764599 3762757.723806536 27382069.644679405 26297054.24529026 5550202.82256138 39378292.06248602 35386115.52038733 14651514.006523604 39587233.4066841 30560565.296272136 37677276.61448219 35999693.886231184 23674670.62638757 37469640.62124775 53655112.46180642 27739336.478871975 33628796.26943439 27447018.165991217 21494752.489542548 32852078.977443215 21411596.795625288 4656429.415166697 7712011.038539186 91587610.50822346 27201945.491874073 3346456.428997423 14458146.47795586 14181635.252409833 35200198.551619366 36191632.984788656 3149267.1710958816 32190592.28630845 34448555.333389215 38228119.10179604 34159547.839112714 19581677.27550395 36073817.40095856 32595695.580869485 38481867.446262494 33013513.698937662 15065722.544905988 7186130.727224116 18327034.956021857 91837909.60180692 36160788.20538485 34237256.61356162 34397856.65737779 9348976.740314657 67372480.55389923 39487372.50615173 1838653.7147820115 19913174.25425517 29984044.387329195 43587896.21480446 36329893.68511741 27852706.76486187 39606244.75464281 36639886.96223706 6826121.6369349435 23659993.174788147 9912291.496160451 26106608.374134768 30976044.6938628 10304580.567154538 36235326.88962725 32487658.102108706 22650330.392148346 2651874.848578954 16733405.458212364 7324442.049742786 33488653.898715496 1975863.343270347 2006527.047915186 26492965.58671916 36163313.59851791 38551650.46926447 21777133.26420986 38053440.570947945 2175033.2042811993 30803643.54034602 83204719.71188894 11764904.240199074 29599368.72243433 40038056.62990066 8877420.610053943 24638729.11940546 34571403.65199888 19495404.3611974 1421493.996154143 24658466.38126505 30210260.881507736 31829493.828317046 18597946.280965395 25587802.163890272 9128003.583544705 11612394.209495725 85566859.51658829 11669430.211081993 30515058.187272623 19074166.002309278 33273397.054752357 33823825.745920986 93744408.51092136 23364755.02632111 40606052.27822397 26292479.55544636 13682755.188269591 38235342.29540221 14873303.709204275 74914284.1309553 29059607.65118415 65335480.0727529 39057944.08600339 44411678.958939835 18913472.247634463 16978740.13667358 40528489.04830029 10081107.688449942 23920995.715691973 36676653.0732331 12107830.49236148 40701008.63831962 35854939.17441843 36556937.94593837 19607958.032485835 33565507.16703487 32470079.869903326 30382244.906929567 33582031.58270333 38919566.0683278 36356314.97767256 10706291.77971334 41306493.0581124 2522529.911522131 92875352.07394293 6017780.610665134 495362.5219604445 26951918.138927907 39870663.27989537 2469373.2237166865 37547940.537472405 21944899.575676356 35284178.807772435 29121556.841517054 32158328.183589812 33476481.51124913 23932686.69117476 19952345.248266064 27169955.665336084 5217057.12185941 40237037.425720274 66579454.87285314 39361885.728629634 41021651.40177025 56908768.49700361 15121753.369721256 10856753.772542793 4900872.56354808 9932453.797313882 1133513.9488198736 15673706.245158741 18586025.126042206 56030561.705052264 20178824.637938768 37508786.959677674 34749279.78335981 61522811.159665756 101412987.74793956 20943455.78717947 41811523.623994984 41869177.05713748 41573410.192937985 9680091.716167605 25617428.9269611 55237982.98376732 22061322.499618247 64541655.26006664 27920722.965097867 41229888.185086824 28033025.370627414 132175643.42720231 13640290.314537132 45309509.71462986 22743694.334096923 33648970.99675581 5004498.193664106 38064446.20620383 29180589.185847312 24492622.290804826 19778458.699285965 36601550.432051644 32266275.441859987 52025996.85709396 31853178.36722415 37673014.53919082 29470598.0164612 23580591.872047815 33942650.536358714 44203563.58461659 40274375.05976362 19948255.357527684 25032814.700772665 26762624.878198553 19738295.89910929 28648481.47163644 12962701.26220454 4234059.1673745485 11816501.378929177 14349647.357931342 36500843.556710586 31380331.077072814 33494424.983236466 35396403.083231136 22461766.72070177 28288487.4227105 6410601.543502272 37261456.3331975 39101017.77899039 36888758.36254093 30138710.45341964 22846261.80749333 43152334.90544175 35778382.9263798 30901012.691583842 4209521.9849900985 29982144.271623652 13330696.000710564 98871.26524813031 19778657.25159347 25538610.981992867 36894653.41912261 54477940.00154495 4622961.509559727 25768416.919734165 3998427.521280043 44104655.957665294 19774755.292864136 20558932.988364663 7687995.3836986255 36028504.120910674 41364979.579541765 34410089.62492879 12775435.056078365 13392105.144948877 21632477.00042225 38863423.63892338 14230343.095148068 15652233.446363647 24248743.246268332 42011396.18487188 5241843.904081018 23136586.6394568 20744162.437024172 3703686.0758245327 22093305.234667394 29561562.473488446 35395208.99341888 35063686.8546217 18525371.457575124 13423186.263540383 54757436.37831492 38008319.47479031 38180011.629616946 17937967.7519274 30508187.51662675 30289703.96107056 57347708.787625864 33028191.879156347 35854909.371905066 38409047.48477984 45006234.18892956 32240543.371722914 37065376.34952223 2444453.516680794 2428449.4082410447 23343269.550223432 4287681.9295938425 17175819.493266594 37905621.216058925 6037258.321062605 29766645.920989517 18707500.514720097 36212139.36365984 32973734.55273987 18394202.71425424 38716031.13820128 36039225.21361161 44658633.50982613 27433595.842935763 21382272.45079368 56746895.29315683 37881798.094595775 39830812.13581666 14249146.428112777 38534212.96595046 23102082.730943467 28121189.61132508 22837893.50378435 27062602.59614618 19427955.07548489 34411527.688562095 4803651.366596775 6686955.707397377 21220138.944690283 30073321.05371436 23353431.011018388 40096159.09668085 14077059.527970348 21358727.96000529 19852553.24379874 33551681.037590347 32535829.267561078 32986629.231124036 19697869.920180574 18754664.514234994 11589067.618320033 66423336.89915406 70557549.26740097 6058797.117299474 26617160.54428816 16993186.39382469 42868889.30908115 12041779.152215183 36762794.85819545 8434353.921102857 7250900.801773288 38838457.835753 8647606.508689808 40919170.55927855 16337145.448283758 50641032.5426845 2092225.6514802352 17778301.180275086 17092868.91414235 37593269.48345867 38872320.02324924 34450475.63635101 33642066.402139336 38441457.480808854 31608878.47729999 31198144.314300355 27267303.59711516 5932991.793517643 43302966.493888594 30539132.233849347 3497122.7372984015 10376064.32903067 19213904.580765106 6296953.216208356 59921835.37539787 63223805.188259654 15083308.264426157 15628480.350974983 23275508.236604434 28862630.44070721 28832608.858979117 38614658.62930155 30051607.42973868 37395168.33877964 19349307.019410647 30964987.35831949 14972692.993304422 32674397.917404145 31269542.031594668 9411421.31551002 36507391.912277214 15266972.00681844 