# vtk DataFile Version 2.0
Really cool data
ASCII
DATASET POLYDATA
POINTS 1875 float
10.0 25.0 0
10.5 2.5 0
14.5 2.5 0
15.0 12.5 0
20.0 12.5 0
20.5 2.5 0
24.5 2.5 0
25.0 20.0 0
13.421875 5.0 0
12.5 5.921875 0
11.578125 5.0 0
12.5 4.078125 0
23.421875 5.0 0
22.5 5.921875 0
21.578125 5.0 0
22.5 4.078125 0
13.421875 21.5 0
12.5 22.421875 0
11.578125 21.5 0
12.5 20.578125 0
23.421875 17.5 0
22.5 18.421875 0
21.578125 17.5 0
22.5 16.578125 0
12.5 15.5 0
20.0 15.5 0
20.0 14.5 0
12.5 14.5 0
10.00806451614194 24.63709677361278 0
10.01612903231258 24.27419354593386 0
10.0241935484938 23.91129031777878 0
10.03225806461129 23.54838709249173 0
10.04032258071191 23.18548386796397 0
10.04838709682194 22.82258064301263 0
10.05645161296179 22.45967741671925 0
10.06451612913326 22.09677418900329 0
10.07258064533511 21.73387095991988 0
10.08064516149915 21.37096773253857 0
10.08870967759623 21.0080645081696 0
10.09677419375892 20.64516128084849 0
10.10483870990822 20.28225805413003 0
10.11290322607429 19.91935482665694 0
10.12096774224832 19.55645159882557 0
10.12903225841202 19.193548371459 0
10.13709677455406 18.83064514506724 0
10.14516129073117 18.46774191709723 0
10.15322580686834 18.10483869092457 0
10.16129032303272 17.74193546352748 0
10.1693548391806 17.37903223687297 0
10.17741935534539 17.01612900945749 0
10.18548387146244 16.65322578418995 0
10.19354838763403 16.2903225564684 0
10.20161290381374 15.92741932838155 0
10.20967741997008 15.56451610134622 0
10.21774193613836 15.20161287377394 0
10.22580645230157 14.83870964642906 0
10.23387096844209 14.47580642010597 0
10.24193548458432 14.11290319370539 0
10.25000000073421 13.74999996696068 0
10.25806451684794 13.38709674184244 0
10.26612903295814 13.02419351688371 0
10.27419354902925 12.66129029368375 0
10.28225806511086 12.29838707001138 0
10.29032258120948 11.93548384557348 0
10.29838709730668 11.57258062119947 0
10.30645161342799 11.20967739574034 0
10.31451612954823 10.8467741703298 0
10.32258064562724 10.48387094677422 0
10.33064516174957 10.12096772126913 0
10.33870967784367 9.758064497034947 0
10.34677419397089 9.395161271309828 0
10.35483871007663 9.032258046551387 0
10.36290322617298 8.669354822215917 0
10.37096774228375 8.306451597231394 0
10.37903225839794 7.943548372092563 0
10.38709677451733 7.580645146720181 0
10.39516129059989 7.217741923004883 0
10.40322580666075 6.854838700266257 0
10.41129032276591 6.491935475534158 0
10.41935483889413 6.129032249764203 0
10.42741935499985 5.766129025006942 0
10.43548387108066 5.403225801370201 0
10.44354838716179 5.040322577719254 0
10.45161290326106 4.677419353252181 0
10.45967741938996 4.314516127451607 0
10.46774193552708 3.951612901281566 0
10.47580645160294 3.588709677867938 0
10.4838709677258 3.225806452339046 0
10.49193548385171 2.862903226672901 0
10.86363636397148 2.5 0
11.22727272776948 2.5 0
11.59090908917042 2.5 0
11.95454545068175 2.5 0
12.31818181403819 2.5 0
12.68181817915301 2.5 0
13.04545454194173 2.5 0
13.4090908986116 2.5 0
13.77272726213363 2.499999999999999 0
14.13636363138024 2.5 0
14.51785714288412 2.857142857682448 0
14.53571428574426 3.214285714885328 0
14.55357142862196 3.571428572439232 0
14.57142857151165 3.928571430232919 0
14.58928571437537 4.285714287507488 0
14.60714285724751 4.642857144950152 0
14.62500000009455 5.000000001891001 0
14.642857143032 5.357142860640115 0
14.66071428594258 5.714285718851571 0
14.67857142887942 6.071428577588326 0
14.69642857180077 6.428571436015462 0
14.71428571474886 6.785714294977167 0
14.73214285764917 7.142857152983446 0
14.7500000004943 7.500000009885979 0
14.76785714328319 7.857142865663754 0
14.78571428612831 8.214285722566284 0
14.80357142896074 8.571428579214821 0
14.82142857173971 8.928571434794218 0
14.83928571444931 9.285714288986206 0
14.8571428572153 9.642857144306044 0
14.87500000002409 10.00000000048181 0
14.89285714286733 10.35714285734665 0
14.91071428569972 10.71428571399456 0
14.9285714285493 11.07142857098609 0
14.94642857139116 11.42857142782311 0
14.96428571424643 11.78571428492866 0
14.98214285713977 12.14285714279527 0
15.3571428591223 12.5 0
15.71428571719138 12.5 0
16.07142857423201 12.5 0
16.42857142974857 12.5 0
16.7857142846084 12.5 0
17.14285714112862 12.5 0
17.49999999772317 12.5 0
17.85714285297952 12.5 0
18.21428571083795 12.5 0
18.57142855939082 12.5 0
18.92857141386655 12.5 0
19.28571427430228 12.5 0
19.64285713574168 12.5 0
20.01785714292029 12.14285714159426 0
20.03571428577939 11.78571428441216 0
20.05357142862984 11.4285714274031 0
20.07142857152504 11.07142856949918 0
20.08928571434997 10.71428571300059 0
20.10714285726139 10.35714285477221 0
20.12500000019564 9.999999996087139 0
20.14285714320795 9.642857135840998 0
20.16071428614276 9.285714277144802 0
20.17857142904537 8.928571419092558 0
20.19642857186783 8.571428562643403 0
20.21428571479022 8.214285704195643 0
20.2321428577479 7.857142845042126 0
20.25000000069735 7.499999986052996 0
20.26785714347055 7.142857130588933 0
20.28571428619271 6.785714276145805 0
20.30357142900126 6.428571419974752 0
20.32142857178615 6.071428564277086 0
20.33928571464426 5.71428570711476 0
20.35714285745924 5.357142850815163 0
20.37500000029276 4.999999994144766 0
20.39285714311046 4.642857137790787 0
20.410714285854 4.285714282920003 0
20.428571428706 3.928571425880045 0
20.44642857148773 3.571428570245412 0
20.46428571431238 3.214285713752382 0
20.48214285711565 2.857142857687005 0
20.86363636516213 2.5 0
21.22727272581398 2.5 0
21.59090909243092 2.5 0
21.95454545450997 2.5 0
22.31818181891514 2.5 0
22.68181818017414 2.5 0
23.04545453949341 2.5 0
23.40909089990082 2.5 0
23.77272726283935 2.5 0
24.13636362860863 2.5 0
24.51041666667252 2.864583333538364 0
24.52083333335455 3.229166667409358 0
24.53125000003504 3.593750001226702 0
24.54166666672229 3.958333335280106 0
24.55208333340738 4.3229166692584 0
24.56250000009479 4.687500003317582 0
24.57291666676292 5.052083336702424 0
24.58333333342993 5.416666670047649 0
24.59375000011929 5.781250004175338 0
24.60416666678541 6.145833337489197 0
24.6145833334717 6.510416671509586 0
24.62500000015173 6.875000005310423 0
24.63541666684382 7.239583339533857 0
24.64583333354729 7.604166674155124 0
24.65625000022954 7.968750008033958 0
24.66666666691629 8.33333334207003 0
24.67708333359532 8.697916675836199 0
24.68750000028001 9.062500009800464 0
24.697916666944 9.427083343040039 0
24.70833333365369 9.79166667787921 0
24.71875000035885 10.1562500125599 0
24.72916666707987 10.52083334779526 0
24.73958333375135 10.88541668129731 0
24.75000000042991 11.25000001504697 0
24.7604166670681 11.61458334738357 0
24.77083333369809 11.97916667943294 0
24.78125000036938 12.34375001292839 0
24.79166666700398 12.70833334513953 0
24.80208333364604 13.0729166776115 0
24.81250000030942 13.43750001082962 0
24.822916666971 13.802083343985 0
24.83333333355412 14.16666667439433 0
24.84375000015083 14.53125000527908 0
24.85416666675838 14.8958333365431 0
24.86458333330886 15.2604166658101 0
24.87499999988007 15.62499999580261 0
24.88541666655004 15.98958332925141 0
24.89583333319863 16.35416666195201 0
24.90624999980522 16.7187499931826 0
24.91666666644808 17.08333332568263 0
24.92708333312806 17.44791665948182 0
24.93749999980001 17.81249999300037 0
24.94791666645933 18.17708332607652 0
24.95833333311969 18.54166665918899 0
24.96874999985664 18.9062499949823 0
24.97916666655788 19.27083332952599 0
24.98958333330658 19.63541666573034 0
24.65909090697006 20.11363636434331 0
24.31818181387862 20.22727272870713 0
23.97727272112545 20.34090909295818 0
23.63636362933978 20.45454545688674 0
23.29545454074166 20.56818181975278 0
22.95454545175678 20.68181818274774 0
22.61363635870555 20.79545454709815 0
22.27272726938004 20.90909091020665 0
21.93181817642107 21.02272727452631 0
21.59090908415283 21.13636363861572 0
21.24999999070893 21.25000000309703 0
20.909090898365 21.36363636721167 0
20.5681818062032 21.4772727312656 0
20.22727271532826 21.59090909489058 0
19.88636362288735 21.70454545903755 0
19.54545453222531 21.81818182259157 0
19.20454544067146 21.93181818644285 0
18.86363634917439 22.0454545502752 0
18.52272726008306 22.15909091330565 0
18.18181816691119 22.27272727769627 0
17.84090907624678 22.38636364125107 0
17.49999998161302 22.500000006129 0
17.15909089129634 22.61363636956789 0
16.81818180107666 22.72727273297446 0
16.47727271035784 22.84090909654739 0
16.13636362113641 22.9545454596212 0
15.79545453028867 23.06818182323711 0
15.4545454400335 23.18181818665549 0
15.11363634812483 23.29545455062506 0
14.77272725866684 23.40909091377772 0
14.43181816866006 23.52272727711332 0
14.09090907805834 23.63636364064723 0
13.74999998745307 23.75000000418231 0
13.40909089754563 23.86363636748479 0
13.06818180839043 23.97727273053652 0
12.72727271853859 24.09090909382047 0
12.38636362812021 24.20454545729326 0
12.04545453791708 24.31818182069431 0
11.70454544876188 24.43181818374604 0
11.36363635991656 24.54545454669448 0
11.02272727049761 24.65909090983413 0
10.68181818161208 24.77272727279597 0
10.34090909059876 24.88636363646708 0
13.29836716804519 5.460937501850858 0
12.96093749805554 5.798367170236416 0
12.03906249886036 5.798367168455805 0
11.70163282969542 5.460937497937477 0
11.70163283195481 4.539062498149142 0
12.03906250194446 4.201632829763584 0
12.96093750113964 4.201632831544195 0
13.29836717030458 4.539062502062523 0
23.29836716853658 5.460937500999747 0
22.96093749805866 5.798367170234614 0
22.03906249972091 5.798367168952648 0
21.70163282978201 5.460937498087458 0
21.70163283146342 4.539062499000253 0
22.03906250194134 4.201632829765386 0
22.96093750027909 4.201632831047352 0
23.29836717021799 4.539062501912542 0
13.29836716891448 21.96093750034519 0
12.96093749723044 22.29836717071278 0
12.03906249968323 22.29836716893089 0
11.70163282943968 21.96093749749452 0
11.70163283108552 21.03906249965481 0
12.03906250276956 20.70163282928722 0
12.96093750031677 20.70163283106911 0
13.29836717056032 21.03906250250548 0
23.29836716933758 17.96093749961236 0
[...]
CELL_DATA 3432
SCALARS Von_Mises float 1
LOOKUP_TABLE default
57366889.71943919 21728839.645281035 48505087.89742896 45465904.51930511 35341344.441372454 41963197.16367616 31922266.231660016 23831856.577525977 27825335.801554795 11323102.158502929 51853058.452981904 31480976.480373614 35360500.80293576 48439582.45727296 59381162.87494863 42056055.65691546 29002601.716110878 52651153.42469681 48464412.849444605 55465036.08824434 24378627.07137812 50096597.20935949 30492348.736695543 17626311.257167287 17601309.949568223 36645422.05770821 50536679.37052347 54686392.09470278 99704845.03069912 3128235.0250927624 18897983.17559149 40767649.06415289 32637702.06187716 110490442.16338058 33943417.89105971 26191768.613315213 39525436.702497 7868005.47695402 87816335.59265497 56097900.02692344 62533683.15450338 50678059.101171814 36215964.57039073 61722602.96990196 56747073.31267939 56072317.70366603 37822227.67761719 54810039.80688621 22966236.783348847 49605213.292565286 37296340.76886477 57476632.750815645 33620483.64544032 55969809.629813895 30930660.422170784 1533713.8649287773 54349114.09243963 36379682.805273905 53701303.17632529 25277580.24358489 44326848.26009141 16462553.497969706 15036198.435801454 89348737.14818828 36336212.84569302 50007849.72205687 49802550.37689518 52671525.05126969 48654672.105463475 49275291.26697562 19492262.710390344 49068651.15440329 48361830.27147543 55677907.71421569 17600493.921702743 14244932.053637816 59181871.40239678 30975880.517520122 27121552.13817622 27192716.114433367 22021536.826465532 50293049.864165686 43561999.73251914 63428351.05516207 40606838.08182792 44902859.4606819 49534234.00668097 52146055.579955354 74907004.11713096 51831228.43667629 58530938.59976287 20610222.333676476 34621534.38872156 19257395.39456233 19294496.68243006 50388202.49526407 48144073.48104936 28927134.13048921 60253654.05765108 1095911.3961628245 40508951.855484396 9783753.0505678 29367827.534898482 17635878.711705327 34806146.340001754 51849012.01008134 49692591.32013654 48399863.721592546 58556620.73391868 89532632.68744063 56736820.206347294 26911957.00429078 51106201.343264826 52596325.67152883 51295962.70142331 57701768.83451517 38718366.99770237 54115668.39652173 4962498.284483654 35839320.84342532 35589927.55453478 52307926.88998263 52926632.41156136 62269287.63952753 40071996.08242962 33102920.511351623 17955901.22997637 40901865.233403295 58177893.09692009 22682092.196238823 50477022.132202744 50766999.58714201 57797242.11480013 19721922.29868394 19577695.805950813 32836143.089805562 50410631.62882117 26923129.699522786 20774528.668604176 25033624.09500435 57787576.86454724 47241703.706522614 37392746.30892824 24351356.431223974 38591965.574454196 57675780.6607003 42345437.84802314 38531502.04734377 27101628.646866653 104504238.21681385 34841479.51990549 27094997.237793405 63855219.909126475 40095656.45059016 21820873.469693378 16521739.75830399 38843836.68005346 52511681.09580647 68383214.81446055 35545093.32706492 67633297.42316714 63000084.36634503 119696270.37928735 59769962.872919366 53613619.97778284 33438331.261732306 49904506.84312612 52273444.473522514 60722382.75370232 81960511.55589938 50566371.36303559 50826729.969456404 53463317.767222606 40405259.84321078 12406546.966028318 59380122.61790211 26268756.125808723 57790074.2971681 41610332.92506771 59027129.7168483 42555499.824144505 51799754.39885975 50633499.35374833 5366055.003675992 35382635.49823694 42450577.6241453 54110414.651968926 56435841.72239433 33410005.135561995 40149021.89125824 51914453.52979674 49313789.51787228 19781880.574185267 46042452.88228091 51024799.056515634 8702765.452050917 50915395.64875515 28977302.535363734 27112977.981872693 67433731.36530294 34286630.70763062 58481456.487083584 54108718.00128325 84777452.33360884 34527513.51618826 38511909.71592944 25803908.111901354 7345436.228112989 30709861.051962152 44144069.674973264 54434419.90471444 12907245.634563552 53840604.796270214 51555138.30488805 16433848.883965993 56487853.19998585 33156996.261946194 21789630.083920147 47115325.73872652 40256230.26698347 19788271.258445114 16161382.157352803 39291619.67405231 51165788.795202754 59894795.88949727 40485138.71619553 48903057.1374736 52684623.44046914 50431648.46838041 3235572.838189323 30221844.073703542 26441025.80566297 57125467.71844298 26480610.94434928 48555990.82020379 60410582.43984543 46036874.34550568 48006868.32243926 30449111.409836616 51043004.476481944 46207550.826549485 55777381.50373217 48301620.37496154 72252452.4051031 49314595.30841799 69270650.79937108 37008454.68731358 47575583.10918366 50883605.26890554 18616685.275986724 61542039.286243275 47253087.32045679 55249479.456226416 31353913.009968977 51295882.72299373 45933092.271026425 51400556.748141326 20323323.802718844 20302679.39671337 5420488.706255853 50598172.79640697 20082955.48973312 25345821.12971309 12496936.27256232 19091079.505255777 65115336.75082799 12206478.762734996 45185660.665603496 14085523.437158478 16506745.607132854 57061369.21537554 19568963.347133037 51551873.490541525 48786120.76066233 58510465.88823136 51227061.38183438 29636402.918187696 44823468.728972234 44638588.06962632 34595655.49517499 35637662.718281396 35320531.99926591 24517530.574809797 21638995.43047219 24091210.153679527 31401007.659455597 39902873.68922296 50145330.763375945 52252004.074070394 39627738.54971198 50697062.19337234 49847074.35090222 56297836.41035239 28091378.48462773 20912741.797563855 53122604.63573139 59115909.18728499 27432623.965868525 52763754.39498589 71536839.93130991 47371634.26789291 57481754.15717782 55490102.44242752 64887891.853233896 46712692.71955975 29688381.23142565 57067961.761901595 52814812.16298236 48978141.57908997 38125970.07739286 53101427.78596475 50930154.85939385 14500923.297387492 54688223.24116844 46647731.78114502 46207953.566155665 55509123.60440319 7624673.154355756 16143656.952353926 51235673.029896125 36529662.662727796 245292206.36459592 53623458.07597368 55510510.00410048 70026454.48186843 53884823.61112207 52595879.819203354 18383521.270390145 32033507.922342565 31531809.967693686 60320268.19780101 51728659.67032336 53546705.21222733 82292263.06974052 50647842.89640512 38278316.38219022 90825101.25655596 23850309.235702384 44108640.3254346 53354353.59964336 7559581.931921933 28253065.908447824 46763068.70687983 50890631.543412305 34491884.92100933 55667561.83998807 54441434.381176636 21763294.989841703 51451995.495885596 57073519.3550072 60530030.46532952 52438877.14389551 51306668.99174666 33927038.436174214 54263307.957787186 57242376.28946409 62011131.0518878 63911127.60621912 40970154.35075695 78954254.21019498 140356935.5739043 58328687.77724676 31059198.79784631 62734084.16689133 47450822.24048021 46911558.04410696 61006216.57699985 38459880.50173482 6839607.018267699 49941818.55060657 55751469.8819626 57637123.225855455 54007177.17366142 51992419.99087318 41644375.68399639 18727972.58886395 46532672.22625433 11360700.490732195 14626443.847307492 61450665.143821724 41266460.40499387 34385050.09729942 32732478.470517587 54997538.94549906 20232378.688182276 54267419.514523655 40054660.98858098 5151825.644084364 49852605.8600284 38184461.718224026 54813226.8036548 58487505.831406444 47511791.517778076 47744021.13072082 37146618.648901865 55069391.24897812 10713711.045760205 208946060.0969109 57146801.67946101 48689618.60543202 30096202.893319264 45924922.22021162 58027697.44579248 41473650.43430933 55750629.9886906 52551295.889827885 47082980.418697394 65189022.373383395 59722358.3709233 52133373.923103005 30738395.53958963 47452693.47886103 58586257.1825133 42618805.27375445 44375316.911599815 58255796.76572659 17088946.35341819 17088946.35341819 123038544.79115592 65156551.188116394 51330432.626981854 8506183.43979188 50875062.82441802 28237377.245315544 37357427.23474069 57612953.99304185 21714192.23816196 31968665.22806702 56743223.78457778 56511283.50661207 51608767.96047456 49936279.65034785 62712723.13028043 86974850.42999569 55349591.90014681 46252581.025031164 57983290.05209273 49425507.2397029 55801265.25997349 48865407.72636024 57416519.9692174 34973103.04483666 57570882.4638106 56903261.097248904 53538819.815081656 42338062.67512373 28223926.15080845 52011493.743031934 33504146.750906456 11221107.60739674 39581067.78797838 62702508.0988325 46323377.13779068 60233098.75603947 68509194.63320583 48225441.0384136 38074828.6522174 30026474.522855796 55066392.21256526 33005027.40487937 40541604.39851125 49608391.52397134 18311971.23383455 54092933.078652404 14888669.763879234 30608435.03359447 24952584.741631195 51118331.935266726 50583301.20384922 55989041.79896024 46177496.324623995 2567281.6643914804 83783404.03260195 67305032.25847617 52485267.270755626 58487379.59252364 48499966.41069558 110866458.12625046 51147729.58603681 50848142.36535654 51591833.35088276 4743623.299149385 54114500.859286115 18903158.542537436 38527243.12185264 56707832.971778445 43847687.37977421 21260382.960947197 29526535.157700773 48162733.470024794 22291904.43727259 48801959.75592043 52496812.93711678 13933465.178200494 53269869.74959667 4980195.900909337 50496222.11419718 57524270.696586646 22386717.498915985 22409698.928830616 50407217.29265553 45718904.68095936 25040518.53412585 62209135.63841871 22111655.39951443 62844056.654879004 84452733.56631775 50337397.75256603 70138890.66626559 19859841.22322807 88107037.87080406 5129870.289545802 54334899.09455675 44837683.87272203 29053986.534390144 54196802.33037762 52267554.09686078 51239201.53785907 9557903.947107997 55461057.525168255 22706412.722935718 22654519.447820194 41219371.09325717 49736099.293087654 64266045.449332684 35300183.79612253 23306406.655856002 23427023.434088722 54427377.53664722 41536136.64790048 41043313.17243174 28650836.820006184 39927505.89446225 58601237.41963863 46295174.42520285 45181534.29093451 59708344.8503796 53815951.65971892 89105046.77201688 56276691.11328035 54794709.049523935 70061173.4245298 79792792.83628002 52138588.032718524 27521464.639894478 58022359.84650764 5184411.998979026 53026358.6598177 51543501.16395127 50164107.017995045 50862864.26697483 54476196.582084104 51930741.591993526 54633852.36134254 63540857.41709116 37547541.17914536 53618627.8095083 69407753.82426934 51785249.248929 60755227.94930293 63038643.7728942 47143755.867139846 1096379.1847326767 56385013.44765665 60741927.28092579 55560320.012489036 28603156.654918972 16797111.813439045 23879634.326323688 34844286.2207695 63427251.67389434 49069749.16626615 33980636.588192195 55895306.22203776 20328395.861398436 37501092.228864826 58621934.49316455 56756568.78885408 28176745.93829341 44254065.3899185 62843666.76466148 62718891.6130985 41188726.82995962 12534349.41289415 47877394.72414694 15420667.969609797 22973913.406528383 46644766.947944686 55604600.26527085 58943479.78579094 10257100.42079698 53728687.33434497 163246639.39375183 48474381.22673334 64664533.07105214 7237968.203525829 92680157.71499489 22018500.384754483 22010541.106349047 58646685.34062942 55673012.52364676 47156348.59132465 61727971.51726731 30827671.44506097 63085065.96975974 52258003.73785262 105230888.43828681 3557363.7648223 47678501.946069375 75521344.97495215 15250738.53050602 40463706.56215503 58454167.211386666 112760364.97268057 49973287.604929805 38153840.938419454 21928338.694874797 46750487.334683165 66219342.39053201 37724177.523628615 53919571.57343239 50321711.68365847 3730761.0013095946 42809866.351905346 53455907.91915212 46662432.40187204 46243549.78625436 35147109.617249236 1314749.82084158 5748352.466364319 27349259.915117092 6238779.323755657 63270285.73368831 24400738.83391513 41763390.95607883 57297201.67428491 46340489.33684874 1167832.371927076 47937990.96641923 57650225.73752626 52101569.54593659 51422406.61920153 29674641.94665187 48623671.888251014 61516943.08538786 65978338.28534046 47894486.96083989 39521422.7807991 34103557.867530525 51088402.11800956 61147980.7242479 54068905.65786503 36146702.27574213 53523315.01941555 39414116.34512842 3192796.8611587733 64969437.31335313 49606061.95913916 5060680.270711785 51117158.07603084 57289868.88531094 11202587.699426502 11241174.447469734 7255690.55389982 10666517.21319744 44485253.46831786 92864154.2303217 56217236.21786976 34500027.55214782 35108182.88478088 47699436.416916706 32112298.19814063 25227315.565300167 85027156.41530466 67380450.23581831 56253227.37232446 57406809.57858709 40385176.37640935 29179135.55462538 21208122.951197684 64316249.39596462 6337041.482345868 6411891.463936599 51753524.17470767 6081972.157361996 98700328.50633004 21662900.690080814 51240106.916833185 16445434.390644591 51345951.66187445 51144745.779710345 67773030.64353484 51052699.925507635 53629920.96687925 34581782.98184191 59085453.926435396 42600152.75652908 10541555.774792686 42064858.09167971 31585131.075545374 47962515.09157185 62405388.5002705 69702979.10533606 31341308.362293717 36692258.42808447 21206905.021886304 4393384.029663807 59666663.478675365 15333904.763089623 39413399.11717311 20823115.464451164 61350852.027668014 35975838.36287618 14398328.070982141 13026412.133702885 82082161.86292797 49120244.66915449 32634226.162201736 53255568.007166736 48255267.26934548 52958164.44069808 53578294.993068375 56280287.86745068 55674131.58034541 48009412.20194147 50201860.95235101 34290821.04766135 20171621.023247845 33230619.319712393 46975391.34582732 48844990.70541532 62125721.96284254 53436948.84547768 42457575.43465184 51456747.72401067 49012633.59734409 55798872.248473465 51622216.182180986 53694714.507731095 40005013.83066481 36045405.576707184 19449798.45732755 45703813.80714398 37922558.401659206 16492805.275387673 47362414.84450688 54271103.04308336 25341101.02912537 57529872.73216481 59784878.04052274 96171982.68270847 42941776.992299095 63411209.09769772 64415512.4404394 25545873.208225682 9791171.517223764 39041137.72102503 2192528.0883099735 45102572.98399216 51849678.14082308 18785947.69454757 18714215.566234995 38867730.02283664 16266066.586617233 32389254.505960684 60832485.67302062 12240725.716126665 14170203.36539089 14140764.295977157 18012430.953946088 54875562.092576854 58098190.05076953 34954810.21607296 47658258.00191254 33248219.523220308 69325121.77265668 25063427.304092117 36398924.60940115 41647214.8591026 15368084.883574052 51817819.080393694 15239362.736741904 68352651.59866469 50362014.62418369 43810503.105339736 16573632.017008286 24932164.562346287 12704789.476694897 12868385.198957855 19406719.33796858 41173408.56804071 59338287.27855771 51141262.48160057 31202865.914957102 16026007.246540159 36965688.40040502 22960432.37403158 15779796.750882668 15810138.404674452 52417688.16714394 31022646.486902915 2613613.0851784544 48227753.951718606 6840627.755768498 52033182.98521708 33061824.561977115 56288316.03575425 16631870.786555283 9197343.03415555 3432898.4251497393 35460176.959063 21958220.741735503 7641463.644371209 31644668.50889239 44855967.55463832 47869115.484664455 1660043.8242520066 55388980.24599254 52316542.34438263 42149702.3601519 4426222.056053201 38711134.31338716 16711968.196184732 16740368.926406626 5060327.478817305 16817682.159869406 56371207.275619134 61040407.99363053 58600441.53545191 52812008.40125734 51145360.92498023 60154677.49840963 47356788.59445992 28970137.89463702 53608933.17644528 51980233.05787865 28914006.237134844 52889919.650794245 53491063.22497551 59393172.664424516 16407912.39476155 45754325.86899082 18664960.73993497 49870503.912591144 36713562.45769124 108458800.3881313 9121078.768527977 53030627.83817184 33279781.205212805 26400094.65493691 51001224.22910417 9727978.20707605 79964426.25487597 26386053.645113375 38185896.29528998 40441651.97503575 25284565.56178932 24695811.036438003 43599067.0619997 9372723.038362348 51208699.730345234 18197075.200562287 18810476.400741093 40632582.58853681 62209926.91690521 51806757.60375352 24473935.327176176 24166602.302599724 59311032.918655194 25802465.979920007 25751568.818732616 42476863.49856573 34372046.726655394 34407529.52969575 51425912.178813845 46731151.579697125 37517723.10743929 5353700.099401376 57967800.31098672 63586125.09932045 59239231.33593307 44591175.50582544 48855576.364245676 38492110.32745024 26570733.868019223 48158709.445447125 16053967.411065754 15149067.24423969 52561551.998885274 11019961.704139177 81283725.96844248 50087918.74064396 46332030.180509664 3747163.3659020606 55151016.15909479 25345772.90909364 44062818.97979775 21356895.86871074 19065698.636203907 86050989.73911864 38890593.635224424 49624916.95631769 37676258.55226609 49350878.97229737 51804897.63201394 60239562.53604748 48689729.898072824 14404362.125926599 49248873.9251704 22211682.043987222 18080511.237611078 20655983.771292847 20226870.636667233 66754681.800325535 52494608.72171535 34815037.81450866 25708491.239036556 54605185.871157825 22945399.726048063 52143460.41722091 35854599.37518083 52888972.15883852 52420375.13216136 47471809.19693015 14587417.092503667 50892898.44965123 3942641.8679704648 57640163.49085568 56139566.45644839 13921359.247216487 49842791.29118115 21605906.76757251 42176918.14069081 11052332.721006963 11146430.819263767 52914654.4147656 17993088.896912113 8167341.700767612 31002164.90641658 51479405.22692482 43218762.58415938 49936307.29841007 61763927.1693631 74451763.37466387 928150.2356555368 55829425.74419161 25681757.10940968 23968674.160769057 48087278.54560766 33311232.142399833 47937103.22547586 36585236.58693854 50130399.99268439 235716948.16026592 13385614.087521803 50788712.29926274 51146375.898259595 6465516.224568618 30495338.188705333 48076119.77913171 20965557.75895773 53720742.84293414 52455785.769114986 6673152.171947975 10105359.140970154 26601825.56357971 24420205.208842453 74759212.6397466 51969041.84370621 97775780.81770669 59981771.969543144 50869880.222468816 135811925.72462854 83153233.57673167 6273834.96869366 61040749.73179657 55517286.730540976 35117103.76657689 5701212.879769616 15349625.818426562 38352242.828856416 47032709.367564216 48257135.6972673 16847877.274099164 16726377.519077485 37319404.26569168 105079389.50211734 33064268.093387175 47300419.636394344 24771544.461928245 48991953.11792554 61122673.8343538 36895756.69319005 22896192.801964242 25915514.97849852 13001586.642908545 51491244.307631955 9666709.953903968 50733374.039686896 60147740.848913714 71414942.28723347 60772232.81674308 27496109.688102048 51553585.799813844 37157657.92886383 49174395.59510243 50996078.2337184 50840672.36109956 48876627.31322844 37171380.44477044 47497138.75627424 65115638.12592419 49024969.633780055 52394944.027415484 35698713.0834113 61532228.64907466 40681671.37047529 55125776.21800336 48002464.10447085 39464425.581573434 33298836.682312284 25866167.100396615 27896068.9641565 36244095.77282486 51153728.18972813 46677489.54895226 104819201.35271443 58098441.394970916 63732800.462308556 52610660.57851831 52135830.44117496 187993946.0770933 45608900.852672815 37355950.9080838 18538413.894636676 29707306.138629727 54369191.77855239 57046013.34462118 64882683.07151709 37551100.67489089 38332271.928932875 62388093.24198025 48626228.69561431 30243114.933220543 53024992.578075215 45071519.39205786 47216215.87694221 107075757.03206277 15360116.506494861 12925158.474726954 12210153.884950677 35951767.97787111 38327594.69880377 46452399.56574707 45905993.65325545 67896354.17857438 40237279.24403506 9348475.720723756 51278201.182937644 49954924.42446145 46112170.20294525 27118651.7312244 27395493.463648573 21845861.686012864 9760555.011468291 52458355.19152942 37087698.32697481 1875934.1445830904 14014122.155234763 59431211.07378017 50199915.57594102 61883343.49828258 61017843.07196429 10121954.052224156 29264232.37524049 53887935.52278248 36415359.26925498 58152035.82643956 74933693.69079304 50356573.466512024 10666029.679031866 45036990.5695457 5186509.184174817 45386062.82332122 20694426.606247384 46431967.74009454 51849282.11334251 51639091.99529261 58605202.99743464 123508