# vtk DataFile Version 2.0
Really cool data
ASCII
DATASET POLYDATA
POINTS 2379 float
10.0 25.0 0
9.499999999999998 2.5 0
15.5 2.5 0
15.0 12.5 0
20.0 12.5 0
19.5 2.5 0
25.5 2.5 0
25.0 20.0 0
13.21875 5.0 0
12.5 5.71875 0
11.78125 5.0 0
12.5 4.28125 0
23.21875 5.0 0
22.5 5.71875 0
21.78125 5.0 0
22.5 4.28125 0
13.21875 21.5 0
12.5 22.21875 0
11.78125 21.5 0
12.5 20.78125 0
23.21875 17.5 0
22.5 18.21875 0
21.78125 17.5 0
22.5 16.78125 0
12.5 15.5 0
20.0 15.5 0
20.0 14.5 0
12.5 14.5 0
9.991935483858025 24.63709677361116 0
9.983870967686876 24.27419354590941 0
9.975806451505594 23.91129031775169 0
9.967741935387979 23.54838709245913 0
9.959677419287308 23.18548386792893 0
9.951612903177157 22.82258064297202 0
9.943548387037561 22.45967741669023 0
9.935483870865918 22.09677418896629 0
9.927419354663494 21.73387095985724 0
9.919354838499428 21.37096773247424 0
9.911290322402236 21.00806450810057 0
9.903225806239442 20.64516128077486 0
9.895161290090327 20.28225805406479 0
9.88709677392396 19.91935482657819 0
9.879032257749005 19.55645159870528 0
9.87096774158539 19.19354837134259 0
9.862903225443695 18.8306451449664 0
9.854838709266936 18.46774191701208 0
9.846774193129884 18.10483869084486 0
9.8387096769655 17.74193546344752 0
9.830645160817648 17.3790322367941 0
9.822580644653016 17.01612900938582 0
9.814516128535823 16.65322578411198 0
9.80645161236424 16.29032255639083 0
9.798387096184427 15.92741932829917 0
9.790322580028553 15.56451610128487 0
9.782258063860747 15.20161287373363 0
9.774193547698067 14.83870964641301 0
9.766129031557885 14.47580642010487 0
9.758064515415136 14.11290319368108 0
9.749999999265055 13.74999996692745 0
9.741935483151023 13.38709674179607 0
9.733870967040986 13.02419351684439 0
9.725806450970376 12.66129029366696 0
9.717741934888643 12.29838706998896 0
9.709677418789838 11.93548384554277 0
9.701612902692275 11.57258062115251 0
9.6935483865711 11.20967739569949 0
9.685483870450787 10.84677417028545 0
9.677419354371613 10.48387094672266 0
9.669354838248523 10.12096772118364 0
9.66129032215358 9.75806449691109 0
9.653225806025599 9.39516127115204 0
9.645161289919614 9.032258046382696 0
9.63709677382252 8.669354822013439 0
9.629032257712137 8.306451597046282 0
9.620967741597934 7.943548371907037 0
9.612903225478219 7.58064514651981 0
9.604838709395764 7.217741922809518 0
9.596774193335289 6.854838700088075 0
9.588709677229938 6.491935475347274 0
9.580645161101724 6.129032249577598 0
9.572580644996847 5.766129024858337 0
9.564516128916669 5.403225801250091 0
9.556451612836 5.040322577620052 0
9.548387096737235 4.677419353175575 0
9.540322580608505 4.314516127382788 0
9.532258064471684 3.951612901225835 0
9.524193548396726 3.588709677852687 0
9.516129032273984 3.225806452329359 0
9.508064516148213 2.862903226669649 0
9.852941176575179 2.5 0
10.20588235384425 2.5 0
10.55882353096536 2.5 0
10.91176470721401 2.5 0
11.2647058842994 2.5 0
11.61764706100214 2.5 0
11.97058823810794 2.5 0
12.3235294170403 2.5 0
12.67647059214862 2.5 0
13.02941176563702 2.5 0
13.38235294061013 2.5 0
13.73529411351178 2.5 0
14.08823528775529 2.5 0
14.44117646397333 2.5 0
14.79411764123219 2.5 0
15.14705882094263 2.5 0
15.48214285710404 2.857142857919064 0
15.46428571423325 3.214285715335077 0
15.44642857135935 3.571428572812889 0
15.42857142846433 3.928571430713412 0
15.41071428559489 4.285714288102234 0
15.3928571427184 4.642857145631958 0
15.37499999986416 5.000000002716725 0
15.35714285692995 5.357142861400871 0
15.33928571401367 5.714285719726578 0
15.32142857106964 6.07142857860725 0
15.30357142814068 6.428571437186336 0
15.28571428519924 6.785714296015096 0
15.26785714229736 7.142857154052814 0
15.24999999944757 7.500000011048588 0
15.23214285665211 7.857142866957921 0
15.21428571381986 8.214285723602668 0
15.19642857098651 8.571428580269666 0
15.17857142818586 8.928571436282821 0
15.16071428546017 9.285714290796712 0
15.14285714268139 9.642857146372322 0
15.12499999988752 10.00000000224952 0
15.10714285709138 10.35714285817244 0
15.08928571426198 10.71428571476034 0
15.07142857140775 11.0714285718451 0
15.05357142859945 11.4285714280109 0
15.03571428572961 11.78571428540776 0
15.01785714284225 12.14285714315502 0
15.3571428591223 12.5 0
15.71428571719138 12.5 0
16.07142857423201 12.5 0
16.42857142974857 12.5 0
16.7857142846084 12.5 0
17.14285714112862 12.5 0
17.49999999772317 12.5 0
17.85714285297952 12.5 0
18.21428571083795 12.5 0
18.57142855939082 12.5 0
18.92857141386655 12.5 0
19.28571427430228 12.5 0
19.64285713574168 12.5 0
19.98214285709066 12.14285714181319 0
19.96428571422755 11.7857142845509 0
19.9464285713915 11.42857142782999 0
19.92857142850372 11.07142857007454 0
19.91071428566385 10.71428571327699 0
19.89285714274722 10.35714285494433 0
19.87499999981069 9.999999996213674 0
19.85714285679789 9.642857135957803 0
19.83928571385784 9.2857142771567 0
19.82142857094275 8.92857141885494 0
19.80357142811986 8.571428562397289 0
19.78571428518957 8.214285703791473 0
19.76785714222912 7.85714284458249 0
19.74999999927616 7.499999985523064 0
19.73214285649986 7.142857129997356 0
19.71428571378 6.785714275600116 0
19.69642857096893 6.42857141937854 0
19.67857142816632 6.071428563326299 0
19.66071428530542 5.714285706108507 0
19.64285714248335 5.357142849666927 0
19.62499999965938 4.999999993187642 0
19.60714285683545 4.642857136708982 0
19.58928571409201 4.285714281840209 0
19.57142857126215 3.928571425242887 0
19.55357142848666 3.571428569733251 0
19.53571428567042 3.214285713408467 0
19.51785714289288 2.857142857857421 0
19.85294117629201 2.5 0
20.20588235487999 2.5 0
20.55882352693214 2.5 0
20.91176470067818 2.5 0
21.26470587509772 2.5 0
21.61764704895601 2.5 0
21.97058822759501 2.5 0
22.32352940747382 2.5 0
22.67647058455666 2.5 0
23.02941176067775 2.5 0
23.38235293441871 2.5 0
23.73529410473613 2.5 0
24.08823527892097 2.5 0
24.44117645565941 2.5 0
24.79411763635966 2.5 0
25.14705881820279 2.5 0
25.48958333332585 2.864583333595161 0
25.47916666664597 3.229166667390891 0
25.46874999996687 3.593750001159383 0
25.45833333328636 3.958333334977398 0
25.447916666602 4.322916668929952 0
25.43749999991316 4.687500003039327 0
25.42708333324472 5.052083336434745 0
25.4166666665751 5.416666669871431 0
25.4062499998852 5.78125000401795 0
25.39583333321691 6.145833337408416 0
25.38541666653144 6.510416671399764 0
25.37499999984903 6.875000005283809 0
25.36458333316022 7.239583339392362 0
25.35416666645721 7.604166673997792 0
25.34374999977512 7.968750007870696 0
25.33333333308926 8.333333341876074 0
25.32291666640567 8.697916675801387 0
25.31249999972474 9.062500009634261 0
25.30208333305578 9.42708334304784 0
25.29166666633597 9.791666678240944 0
25.281249999644 10.1562500124601 0
25.27083333292552 10.52083334760698 0
25.26041666625816 10.88541668096443 0
25.24999999957175 11.25000001498879 0
25.23958333293401 11.61458334730956 0
25.22916666630316 11.97916667938932 0
25.21874999963477 12.34375001278308 0
25.20833333300986 12.70833334465483 0
25.19791666636482 13.07291667723147 0
25.18749999970019 13.43750001049318 0
25.17708333305312 13.8020833431408 0
25.16666666648339 14.16666667308115 0
25.15624999988681 14.53125000396162 0
25.14583333327724 14.89583333529646 0
25.13541666672773 15.26041666452946 0
25.12500000013395 15.62499999531171 0
25.11458333346292 15.9895833287975 0
25.10416666681642 16.35416666142532 0
25.09375000019333 16.71874999323352 0
25.08333333356111 17.08333332536115 0
25.07291666688319 17.44791665908837 0
25.06250000021687 17.8124999924095 0
25.05208333355612 18.17708332553584 0
25.04166666690528 18.54166665831552 0
25.03125000016995 18.90624999405174 0
25.0208333334352 19.27083332976814 0
25.01041666669018 19.63541666584358 0
24.65909090697006 20.11363636434331 0
24.31818181387862 20.22727272870713 0
23.97727272112545 20.34090909295818 0
23.63636362933978 20.45454545688674 0
23.29545454074166 20.56818181975278 0
22.95454545175678 20.68181818274774 0
22.61363635870555 20.79545454709815 0
22.27272726938004 20.90909091020665 0
21.93181817642107 21.02272727452631 0
21.59090908415283 21.13636363861572 0
21.24999999070893 21.25000000309703 0
20.909090898365 21.36363636721167 0
20.5681818062032 21.4772727312656 0
20.22727271532826 21.59090909489058 0
19.88636362288735 21.70454545903755 0
19.54545453222531 21.81818182259157 0
19.20454544067146 21.93181818644285 0
18.86363634917439 22.0454545502752 0
18.52272726008306 22.15909091330565 0
18.18181816691119 22.27272727769627 0
17.84090907624678 22.38636364125107 0
17.49999998161302 22.500000006129 0
17.15909089129634 22.61363636956789 0
16.81818180107666 22.72727273297446 0
16.47727271035784 22.84090909654739 0
16.13636362113641 22.9545454596212 0
15.79545453028867 23.06818182323711 0
15.4545454400335 23.18181818665549 0
15.11363634812483 23.29545455062506 0
14.77272725866684 23.40909091377772 0
14.43181816866006 23.52272727711332 0
14.09090907805834 23.63636364064723 0
13.74999998745307 23.75000000418231 0
13.40909089754563 23.86363636748479 0
13.06818180839043 23.97727273053652 0
12.72727271853859 24.09090909382047 0
12.38636362812021 24.20454545729326 0
12.04545453791708 24.31818182069431 0
11.70454544876188 24.43181818374604 0
11.36363635991656 24.54545454669448 0
11.02272727049761 24.65909090983413 0
10.68181818161208 24.77272727279597 0
10.34090909059876 24.88636363646708 0
13.12245575810983 5.359375001489979 0
12.85937500007252 5.622455758928196 0
12.14062499745613 5.622455757501361 0
11.87754424071326 5.359374999451498 0
11.87754424189017 4.640624998510021 0
12.14062499992748 4.377544241071804 0
12.85937500254387 4.377544242498639 0
13.12245575928674 4.640625000548502 0
23.12245575866386 5.359375000530365 0
22.85937499942928 5.622455759299569 0
22.14062499843458 5.622455758066268 0
21.87754423944776 5.35937499725959 0
21.87754424133614 4.640624999469635 0
22.14062500057072 4.377544240700431 0
22.85937500156542 4.377544241933732 0
23.12245576055224 4.64062500274041 0
13.12245575835722 21.85937500106149 0
12.8593749974183 22.12245576046061 0
[...]
CELL_DATA 4428
SCALARS Von_Mises float 1
LOOKUP_TABLE default
123255600.94906779 12042251.509914137 48739500.63410629 330591.5880446169 37627964.06874307 18929152.61316012 18899053.882672798 2086856.1149115479 43643725.48395158 4571702.279337712 27207088.787772942 33261503.574268594 6746943.866930963 50813046.767304376 21725949.810028087 11730130.47901885 1891173.5141196207 1898747.2707511787 19455991.810191378 42743254.92108552 43281905.93600849 26816337.71835409 45105697.49590649 37481505.76908833 8289959.3700614115 19925325.003086817 29244465.77983822 46258389.13081415 11544059.628955577 51195382.08667303 32618300.64597755 25339141.036299273 17872427.137052823 46608198.053337134 32713351.640085682 35321532.70141645 47815100.425023206 40510321.772558175 40075329.69164803 57751815.048699364 18903892.80329456 42147866.36745698 17200201.06586115 25942006.956158973 54255606.90094099 51282845.403205425 45541971.97883995 27353919.145835105 38641863.96038251 14755980.862765456 39224716.90225655 31291465.782232992 45836370.13109111 44111650.740082994 34842764.37147903 41288002.96979639 32494388.099773105 43648593.21181253 45396720.62827812 42449631.31078353 51318765.240314744 56718089.73717896 21210690.76349768 6830233.266256596 16099981.148394575 39264858.79357597 9664577.223715538 40445067.88196323 17493215.50722295 19547454.584664006 29615151.64066591 5981190.93797296 31607094.159452025 19392749.308829226 67087779.447404526 69218399.13765348 19622236.865630195 37335320.40876245 36345185.57207599 35887658.10150148 15452346.440934865 13803262.282454846 39981015.65683805 53999375.77065752 51988557.96789716 4094140.2292116606 47311608.49232648 12313449.915305218 23922773.410117276 46078035.46548011 17845234.27926421 69809826.81747341 24870574.63149172 35185435.30308523 46017163.35376824 28480966.34306237 53379973.34514898 46635608.30568296 7695137.297767504 7706919.924974074 47658617.40219479 99401400.84285288 24440286.08968577 10995377.330679156 10994324.98550507 48859024.30691013 39322195.10137364 35282268.50727869 27510154.266673982 22744888.579276998 39694036.92870024 40870323.361043304 47692831.51952375 31200713.149111763 36525271.24274486 35836465.22167651 43732872.09918892 16089127.823369522 12301057.66798277 22214701.50019277 33658290.40179763 40883210.65809104 56624308.66698038 52640134.852625094 47312724.29926713 44122439.339492664 23753192.374390464 25750809.349286843 43802361.39679632 50415649.29043028 49589425.00037564 30902418.652451076 27263657.108108453 33261141.569869332 17200509.769391242 17530081.62298829 16990396.592356827 17320613.98523434 44559418.709075704 42316475.763914526 33543225.517769072 19403532.6017663 42108362.31925623 7557370.470302652 17819219.64662921 46654044.77889275 12216087.549835315 42128769.65452896 30689601.37565492 4638995.364979243 5814511.873333374 50243991.75315475 49742405.92051189 7290956.767481091 39686715.88220487 45280257.02225515 16939981.283732526 31240938.496895906 7730516.684096403 48640577.07292585 31836470.205631875 44372486.6683286 59490874.691565596 43671019.368299544 7159463.897933191 17572121.7709411 17853813.361991163 55106109.51606742 60025260.18620429 43502484.35338796 48901897.24096726 7116089.240051294 68849865.89232089 45349266.871618405 50536111.190355584 27802919.377629098 42162806.07203326 14093211.814607281 47144642.440272935 122727662.70039877 38835666.300498374 23228108.936796375 28547612.292706758 30370151.95667562 23959235.413073923 9333963.736663746 9334191.60406553 60488887.96781118 2685647.6210361226 2694379.9171164217 4481180.73206941 35005093.306623206 51951405.48135479 19095618.07906051 27132032.522395473 49717817.97115457 37897346.82568911 10433834.39708912 13973710.484273765 37888986.41896407 34517924.41466527 201086334.06761548 52474012.81098485 50622499.63361718 4414780.428734957 17044240.718661908 28945817.121432096 9116707.158430193 15643673.69143338 60815308.22848502 33477377.362509254 29502762.37029631 43648896.71514331 610935.3797030409 28039852.32883961 50292294.49431231 45236886.110587135 5070208.815200244 28509802.06748451 40131803.48187108 51964097.46693267 6079384.333277752 21573271.126519352 46953038.02371554 58164230.588371836 5900293.3766638385 34459175.87965031 4495566.627171033 29290005.15739879 48385131.87443982 24745695.45232773 47233693.75868689 9818697.307154674 13971654.434580732 37315597.10600799 26600742.60875898 43917393.44981137 64570536.37565426 33510538.118659068 110553147.02903534 64209215.93667324 33864868.65909215 5386549.557957051 29553112.1664954 46438773.62775376 43583749.74971221 44751138.031294934 5074913.781315047 10233624.965852216 43301294.60045749 42163952.795936786 42456197.90417376 14898081.17088186 14826615.53926388 42000246.009614535 45132307.280064575 47865581.58799303 33245232.10217331 45590325.906562954 40159528.88960905 40772137.85002811 4714303.419611673 4699089.524329458 12427008.173049938 10064738.055589192 45873488.766697094 46384915.36398368 29850044.998275537 48976835.97471201 41131347.48107835 18346648.228807554 30227616.444640864 18121859.24941058 48853156.50793125 58118522.88229688 49259667.96024802 12492933.558611525 1912470.000818088 10030403.650992258 17561413.47496887 32773726.058663387 3875338.7459132452 10040958.200001793 4754705.707936424 40676341.09428289 40285711.98886972 27411224.843345307 44505018.30880326 35076247.88317245 7424585.624748748 7413860.705961597 42138698.485287346 51180166.56734183 41968510.65302627 5236670.773798075 25417926.35585328 5728154.645355902 5678433.65049611 74570094.80817308 34389799.98387333 46071077.872529194 50301587.9561671 46389716.03727697 43738346.51781839 44570505.56402826 39136491.34172037 34235370.30278424 39254319.353493534 43630795.82636854 45844262.58853574 43409254.01609124 31939398.036692675 43616516.43572022 46751027.208945535 42943979.42869223 33658166.05463422 43530777.349596426 29802410.530438285 44471089.75829038 40214077.87015458 4376259.551044279 47940912.953519955 49573445.41050831 52515389.95870925 49830953.95761548 6912223.132917155 6830730.507059577 42591626.24002117 47687634.48056826 57788420.96185596 32143390.6589969 10192523.584327884 2481809.6180104297 51302518.67766651 32250884.556738064 40559828.52572411 24992831.029828493 92672172.52857965 48472816.67059003 1432785.3913323663 1430475.1687645263 44901050.97633178 39465452.81897029 14708123.573880944 60937131.6316968 13768578.887504552 39998034.68714147 21413802.416769575 51517708.800772116 22712712.967004348 21442967.039270103 38230106.45031767 13822173.874041948 14578194.8687239 28032298.36467721 29157034.891922746 46328873.72272481 39799684.60380064 23199443.79956348 52532562.68134976 48337993.37158004 45683933.197644606 35399608.16454649 62220809.67631794 16032771.137673475 43329103.315912575 41548557.50722857 25654904.342345916 48821457.21366162 42636010.3369521 15375376.532019194 44643832.778187476 30592882.857891027 67427317.87593499 42102847.771729596 47855435.08340472 40546427.34289718 37002962.50356415 40401975.56360473 32011772.792199224 10855036.690773388 41576986.79420064 13492803.715042783 43373084.00529986 46542585.5594797 49098450.765985206 120520315.52710922 42776864.96437749 11748678.523066929 10889476.798868766 24242026.71864992 50639921.35355323 47799446.135961145 43034326.47030858 31308525.19875686 39635842.13055242 12416250.41722917 21077732.320178032 32385449.470916253 50259182.85405301 40612306.5397683 61681937.603668705 58880711.0057188 24809374.42197456 37715355.54323669 74171868.95827644 37087964.538270876 27747748.56328869 35783480.664777234 45885865.53688433 24312156.72685268 43914781.206335485 59000319.329543084 42878583.712581255 67018786.87364486 51272761.96728644 41783554.83705675 36106992.0506414 4257994.727119713 35744531.55432315 35731984.26854068 54026259.184334606 12874617.731601126 45229616.87524485 40228455.57006117 38212764.429786496 15104192.734036945 15639789.093225248 45026859.978688404 25102283.1402391 47658864.35120998 59211520.1981039 47507242.45459762 13549220.325493993 40172122.70159122 5546428.496321853 12629801.127219617 87457512.34223153 44353229.4848286 20483938.294862345 58814649.22308304 22770139.56907881 33908654.033867694 43587248.555827804 25067985.33753914 44457493.559378065 14435352.62329325 44686301.029712304 24811335.908213355 11824100.545441609 22434991.733540908 45191985.77570226 5726012.769778381 34971983.45641559 19208178.85947915 42231243.44912394 11600988.503727859 10383888.336016797 18905957.550083134 48181047.450010076 45589658.80714835 20269727.011593923 45721105.27848516 63282652.264776886 43824050.56837732 34765442.35886545 39593293.00350852 8615600.084879661 37024301.12878197 39133340.2428761 47857396.13865721 48384803.16479703 15524775.890523775 30675715.16584617 27539193.76347087 52209215.01696769 19418803.219981626 31244408.88392211 15954416.922943378 27073680.534794234 44801501.26856637 26176742.062039223 11831709.855568541 34414267.23566526 12799921.44168973 746129.9655475897 46489941.08154444 42481349.37906191 22138179.207385384 22916347.216832366 49005174.44970323 32405881.00733411 22627237.307833463 42551481.85392356 44967140.176735245 34796139.20539013 46789657.231995925 47445055.028795876 59639358.417504855 29688165.014097497 52826960.96081115 87847689.67791602 35217203.78570534 3826483.519121593 22429512.349768806 17719444.729092315 45390229.72484825 57390260.978361055 46996624.217888385 50990593.797259405 32030545.125758722 57456080.49829995 48578558.266852506 69138986.06582448 49318846.77695573 21108742.72531726 41797865.68598798 43528951.0209653 49286101.877808504 44538564.721527405 42082289.16168124 24113687.895822275 14512520.68775448 46343341.054519884 43877989.16302187 817237.5512327414 36513651.015396014 46619306.11312447 70794314.28757936 89065433.31398644 30849760.861648336 46817533.133024 40041005.604325406 39734654.96392852 46009720.18898502 54852541.88986462 34985224.245905 63783804.44734154 56381042.48473905 48560818.8884959 4038118.363840706 3240209.927362732 28984713.472002793 35245075.773287766 14216245.964737456 39852042.797005326 18323797.381435763 45716333.78160118 38585164.39578502 27259835.473266203 43007092.63438701 11805418.522058157 50424163.95330693 21004200.666806884 10307029.832416354 51555103.005651 14915507.920551542 38877980.9589638 23644087.29285203 52468365.75009295 31546393.98890096 25312054.509139813 45967431.97862143 38072349.04374392 44777550.03180918 28335052.295172166 33715416.587985866 8671422.055326182 35363492.06705492 26733717.089707974 46832587.87713698 35602899.72423207 33629865.01407993 41072410.350802965 40968322.97735162 43562843.09515823 1845769.0434372008 100488083.39595807 56617056.6061935 47496112.843461424 38946243.52905747 13132918.557089174 18049123.113891564 34593186.895969905 39777785.13356314 34596508.754542425 37977813.53295754 15481024.557046812 64682767.49921389 51209359.77601034 26679291.53412945 44689367.19126039 28688306.567857575 28491652.403152723 51482280.19004461 47334128.0024294 45737146.25662519 42877835.80379671 87119751.28840503 15409593.834378494 15409593.834378494 37203062.66679334 55213155.75386037 57768993.918758795 55548453.33277223 3150051.272577117 36218346.069105394 50363452.858678386 55856518.14558835 48561998.51407397 34645989.16362509 32428481.828468677 47666445.96092839 32474684.6623038 45904811.24592206 48045423.53257846 33349191.82587838 15042591.994424025 1311766.3082125639 35396086.52920338 75620719.6986452 50210624.7927664 40903620.46691335 40504371.21249242 9710140.969388403 38261468.03699525 54406628.28790277 38001311.63213268 41517676.036305524 49447135.27914522 49885818.20500435 64569414.95093339 48469137.705432355 49749403.57103631 21412441.14027557 48942976.88143568 57821622.678308085 8841300.794375595 27839556.35298636 43438170.58278966 37081844.76062575 53154736.07866979 41648799.66847277 43244547.30166392 42176114.20057165 41264242.397384554 57061494.520483874 56989581.09439146 18009070.54173437 38507911.87276248 27971183.113154493 25549485.530397937 36595178.54297672 25915706.79946813 47373758.33419074 36073875.23580286 55214017.407574534 45374543.827510625 36823922.56673282 44159975.65287894 9603351.065591162 17552889.035975073 17725943.207771555 35467420.23886332 36749700.701004334 28315024.436956663 34074505.58012202 25552304.043932684 47446364.03000828 34356419.18084221 41571447.33104231 41653523.309903376 41663931.97036924 78806275.58745292 21806102.98021019 28092985.757343818 46271117.18931984 37316491.86222577 20825428.06293357 44525170.96250501 43360045.158118635 41750804.83038159 9093336.488156907 43904725.60896111 56994514.89570161 46184825.15681885 44682647.21416254 14725550.11349012 67534916.71608424 12450881.20408612 54994397.677736595 32012158.050280295 44892135.79343387 47028094.28370475 41519856.35378407 13638549.02975117 13553782.93708641 74845742.94408727 31242639.189216096 50622351.008619815 49398817.82283789 98876014.03813545 50651327.57653577 73219818.77648164 27193182.139572486 41619536.38498108 46548435.414630115 33090183.031298924 45884093.11120789 12716923.567978086 12680567.947933964 32156782.4606582 23557114.456819084 27355048.610602055 49444775.06375209 63049701.40637359 21201568.67399123 15576091.154552922 15640285.478279006 26623499.51030634 37409406.09757948 27653886.648073945 33204674.755796906 28879485.24641508 50481727.36571205 45297971.6905068 41135375.64259826 33715998.75964327 6120993.193371419 24727877.30378202 40841225.039990515 16626903.594929496 16565350.294594606 30210627.552460216 24232135.928079363 24145763.527979203 9201315.946644392 9133850.275690587 26205285.142003074 17358267.90996117 29394216.647801213 42235921.03001396 60204200.13276625 10184161.230107477 26463997.913818963 10237866.72052495 10132049.201515757 50690533.86186706 38926849.24778634 31469326.1050331 99879558.47569978 37578919.36110488 29606333.279055025 20808794.07289012 11142083.681693142 47451630.92346181 42028633.36238985 41946106.7984071 47724237.88298387 41848489.749958985 20459503.820982546 42686176.774852715 20066346.98377923 26015863.21167758 27376077.68322439 46467010.569305815 20104579.642388836 20079463.19330839 32763671.87469155 35632542.41544399 20203317.16350866 48594677.07277545 45625728.36719594 18552542.28702746 29932597.27271692 3698175.6381723275 19991726.17257824 20985020.461268242 42652610.18442636 10046100.205405122 9988409.439931262 48575487.50081083 35690531.34354658 3008068.0400144523 53653325.14175517 36138477.32238657 21538540.656887613 60793734.62470542 58032890.46861175 31078626.706717648 52247266.58906822 36994302.97602695 25387539.17518684 10991926.6730074 10946624.037505493 20818033.702554684 65522332.70678782 40240503.26716866 45787138.93685347 45835362.11813157 19894753.008618955 45218367.89906533 55289535.56754868 23551624.954797138 50869864.67609434 41863985.50504651 2720872.1030965876 20121799.18453356 50017898.41615424 33288780.18871337 51756610.32194473 33370161.462362897 35045880.4002866 55325414.666456595 54410085.544406705 52553354.51349178 58261247.55706707 29313159.9045272 44026915.856741056 41508257.584306255 50635981.09825569 9052237.637798442 49140172.46952586 18687519.205846325 28879175.34459864 48050040.71471034 45325359.79501825 998461.0709060857 42116956.36704413 20870514.2678831 23915650.270250503 19829351.209871657 44572095.5297288 76648577.93758987 56388270.50548849 42090865.36666367 31687716.25182815 41701738.83380276 57890447.328188084 21048142.753268845 14199031.426196415 63856457.44823061 39380380.59587785 46443646.02393316 64208807.126897134 29504116.206863727 29309001.103647072 33392891.664753668 40389158.85407715 37849683.45798003 152061373.49586475 64389477.99273708 21803773.775082458 43794779.943477 41548327.01905541 17220191.137825977 52049463.104420245 29910646.718306795 48003282.42626038 23746421.64178464 43418894.39619905 5312081.819940601 22112138.16342904 33499529.532694217 29326447.746734366 20829699.539385963 7152465.488385123 40555871.67629842 33181445.85456839 25785062.61302009 32463339.638001904 27202011.58209764 33997366.456087396 36018021.663309135 36798288.336507015 28683958.958335884 82576950.44825613 23192920.07508977 6004959.663240187 13544270.31565317 3300087.3070920478 14091869.06002021 23525623.591472626 47959660.726564914 8555712.099537883 16470389.735571928 16387086.938913224 43147474.64706257 13744081.405586079 58741268.13802975 23425900.701035157 10943065.649549741 46862131.05710199 49671130.51295149 13925465.790232828 25708866.142481808 21251408.028859727 21302345.248820137 15328223.41882006 31094691.109815676 35179830.57696679 27631883.180086877 21178128.887728445 96996750.39792183 64023112.399320595 31544429.201226912 37740291.98821231 31160290.136427216 67989457.95984274 4976341.093196695 17017744.634198867 59038434.1632423 38681521.88191517 42221754.842104286 12478055.19448148 52982022.130996466 18465309.684314765 48312853.52046352 39532166.8707535 39162165.10906832 44315909.88346219 30933242.900860235 39500494.40072756 47792001.93132718 41748135.84860868 57167136.57183233 56362505.49860322 5681568.728054006 45297639.81436031 24282125.025323816 46258781.37562381 50605451.11061704 17547433.542779226 36114727.34220448 14356856.28695463 47666110.62892076 45444880.990013264 39322154.696116254 57335924.94747086 17549474.706734482 37590071.55668818 18349222.728657216 18760208.976853523 21313066.72713248 51947827.544439435 12674625.820121353 27733881.891482983 36675215.46731634 12968824.556226159 41468975.32579339 33156898.308965012 43036973.79390381 30767246.98523278 41120825.422634296 28005077.54916473 24014527.061693773 22288748.02300825 16900697.453352537 46225321.02901469 45959358.9932364 40103903.53796535 36954688.24401616 7484641.3916575415 120453368.7844273 44835404.14090422 53999697.48806494 1752623.7641801669 96718784.81466444 31703853.354880664 15298691.009395737 7608133.182565775 45533389.69430888 18207744.29086373 20937719.210467067 44825759.34050333 84190082.8142287 44549919.14190098 74895183.56993964 49907867.94112022 47373486.404010236 21299777.97723405 21324449.672786724 41474569.65008179 83463526.9171203 52728875.67799631 53059348.068322346 34247144.8220748 41216207.35808085 15995770.003513005 49919237.7549951 53431977.17080099 44634141.321819246 45769169.811121956 34448600.53440329 46756036.16334782 7557090.680011829 66259264.39331585 40567038.145504214 15825838.636083776 36989389.47263004 48420032.4724757 45360958.46551941 55934415.18262563 60758296.26667136 41503720.11543252 50398323.18513553 68275765.158645 63412994.66546137 45281010.61752319 1027956.6145181492 60700670.086756445 57952691.02409783 48641342.20251856 45547849.75698209 47663246.37480011 23199128.948847204 17148358.908276666 50182501.0293534 41989447.321635894 42836901.598567985 57297299.64659163 41063322.99500712 27583218.840505444 8749519.532680849 46260438.794967175 45538039.53757853 31918072.798920248 1014888.7027907476 1018689.4977108288 36238881.00262166 49909684.992141 45222540.62537422 43071146.80793418 55190838.17119486 54980459.96669137 44094001.03818384 36540386.30010001 47274042.07532056 42574677.99137893 45478488.166615985 30551747.549561165 40590043.3375507 32835492.62049472 12223823.500802968 4725245.988073129 43794806.53903075 52784263.26438364 1037966.8496857188 47606241.9214787 91102961.77825645 44378987.29886916 44212970.23766656 1708550.009651785 10693947.834265137 43282478.151719965 55681928.856374465 1366719.283538844 45814407.93303259 45098762.967969604 47603953.97331298 21351980.722508274 46216068.56338871 51622804.54409616 34544625.4614174 84375456.92368993 36398863.14882068 41119114.94320984 40558826.61845696 40818689.25552351 43469239.72332927 40949323.01943262 39271985.67875237 18909799.578003682 32268398.03803196 44974076.75852199 23501309.3794633 18712793.69218209 36450831.98028165 5045126.106875092 8748731.500025509 40153535.96421657 26202051.965103585 27334261.842512358 19286885.329785693 19240968.96979447 33484731.3693815 56041888.09999688 112056765.16801758 42928515.041482