# vtk DataFile Version 2.0
Really cool data
ASCII
DATASET POLYDATA
POINTS 2245 float
10.0 25.0 0
9.999999999999998 2.5 0
15.0 2.5 0
15.0 12.5 0
20.0 12.5 0
20.0 2.5 0
25.0 2.5 0
25.0 20.0 0
13.21875 5.0 0
12.5 5.71875 0
11.78125 5.0 0
12.5 4.28125 0
23.21875 5.0 0
22.5 5.71875 0
21.78125 5.0 0
22.5 4.28125 0
13.21875 21.5 0
12.5 22.21875 0
11.78125 21.5 0
12.5 20.78125 0
23.21875 17.5 0
22.5 18.21875 0
21.78125 17.5 0
22.5 16.78125 0
12.5 15.5 0
20.0 15.5 0
20.0 14.5 0
12.5 14.5 0
10.0 24.63709677361402 0
10.0 24.27419354592701 0
10.0 23.91129031775874 0
9.999999999999996 23.54838709246676 0
10.0 23.18548386794702 0
10.0 22.82258064299358 0
10.0 22.45967741670554 0
10.0 22.09677418897655 0
10.0 21.73387095986818 0
10.0 21.37096773248194 0
9.999999999999998 21.00806450811888 0
10.0 20.6451612807928 0
10.0 20.28225805407666 0
9.999999999999998 19.9193548266023 0
10.0 19.5564515987474 0
9.999999999999998 19.19354837138494 0
10.0 18.83064514499617 0
10.0 18.46774191704055 0
10.0 18.10483869087001 0
10.0 17.74193546347678 0
10.0 17.37903223681661 0
10.0 17.01612900940379 0
10.0 16.65322578413419 0
10.0 16.29032255642479 0
9.999999999999998 15.92741932834607 0
9.999999999999998 15.56451610131936 0
10.0 15.20161287375545 0
9.999999999999998 14.83870964642377 0
9.999999999999998 14.47580642010495 0
10.0 14.11290319369939 0
10.0 13.74999996694269 0
9.999999999999998 13.38709674181718 0
9.999999999999998 13.02419351686376 0
9.999999999999998 12.66129029367583 0
9.999999999999998 12.29838706999966 0
9.999999999999998 11.93548384555825 0
10.0 11.57258062117281 0
9.999999999999998 11.20967739572134 0
10.0 10.84677417031325 0
9.999999999999998 10.48387094675739 0
10.0 10.12096772123179 0
9.999999999999998 9.75806449698064 0
10.0 9.395161271231192 0
9.999999999999998 9.032258046482013 0
10.0 8.669354822118947 0
10.0 8.306451597138944 0
9.999999999999998 7.94354837200364 0
9.999999999999998 7.580645146620729 0
9.999999999999998 7.217741922905391 0
9.999999999999996 6.854838700199402 0
9.999999999999998 6.491935475456518 0
9.999999999999998 6.129032249693084 0
9.999999999999998 5.766129024955096 0
9.999999999999998 5.403225801332082 0
9.999999999999996 5.040322577682138 0
9.999999999999998 4.677419353225353 0
9.999999999999996 4.314516127429037 0
9.999999999999996 3.951612901263398 0
10.0 3.588709677867029 0
9.999999999999998 3.225806452333023 0
9.999999999999998 2.862903226670315 0
10.35714285661005 2.5 0
10.71428571213589 2.5 0
11.07142857046827 2.5 0
11.42857142735092 2.5 0
11.7857142850142 2.5 0
12.14285714287573 2.5 0
12.49999999995663 2.5 0
12.85714285391503 2.5 0
13.21428571211111 2.5 0
13.57142856468173 2.5 0
13.92857141917294 2.5 0
14.28571427871344 2.5 0
14.64285713891684 2.5 0
15.0 2.857142857852235 0
15.0 3.21428571521503 0
15.0 3.571428572726516 0
15.0 3.928571430603533 0
15.0 4.285714287978719 0
15.0 4.642857145514987 0
15.0 5.000000002580401 0
15.0 5.357142861368146 0
15.0 5.714285719647869 0
15.0 6.071428578485179 0
15.0 6.428571437049889 0
15.0 6.785714296048281 0
15.0 7.142857154135942 0
15.0 7.500000011102228 0
15.0 7.857142866965729 0
15.0 8.214285723560286 0
15.0 8.571428580253976 0
15.0 8.92857143590683 0
15.0 9.285714290295818 0
15.0 9.642857145775196 0
15.0 10.00000000179977 0
15.0 10.35714285775001 0
15.0 10.71428571439413 0
15.0 11.07142857145955 0
15.0 11.42857142775673 0
15.0 11.78571428532397 0
15.0 12.14285714320719 0
15.3571428591223 12.5 0
15.71428571719138 12.5 0
16.07142857423201 12.5 0
16.42857142974857 12.5 0
16.7857142846084 12.5 0
17.14285714112862 12.5 0
17.49999999772317 12.5 0
17.85714285297952 12.5 0
18.21428571083795 12.5 0
18.57142855939082 12.5 0
18.92857141386655 12.5 0
19.28571427430228 12.5 0
19.64285713574168 12.5 0
20.0 12.14285714165368 0
20.0 11.78571428436058 0
20.0 11.42857142737726 0
20.0 11.07142856955135 0
20.0 10.71428571316279 0
20.0 10.35714285484745 0
20.0 9.999999995955926 0
20.0 9.642857135639455 0
20.0 9.285714276871845 0
20.0 8.928571418674213 0
20.0 8.57142856231663 0
20.0 8.214285703660536 0
20.0 7.857142844508807 0
20.0 7.499999985406642 0
20.0 7.142857130003156 0
20.0 6.785714275659092 0
20.0 6.428571419530735 0
20.0 6.071428563699761 0
20.0 5.714285706611115 0
20.0 5.357142850049079 0
20.0 4.999999993527312 0
20.0 4.642857137101577 0
20.0 4.285714282125578 0
20.0 3.928571425551149 0
20.0 3.571428569906041 0
20.0 3.214285713520577 0
20.0 2.857142857692707 0
20.35714285650163 2.5 0
20.71428571178895 2.5 0
21.07142856795603 2.5 0
21.42857142687388 2.5 0
21.78571428441634 2.5 0
22.14285713997626 2.5 0
22.50000000002168 2.5 0
22.85714285703133 2.5 0
23.21428571221953 2.5 0
23.57142856194335 2.5 0
23.9285714186928 2.5 0
24.28571427764782 2.5 0
24.64285713873408 2.5 0
25.0 2.864583333579086 0
25.0 3.229166667418379 0
25.0 3.593750001170938 0
25.0 3.958333335039145 0
25.0 4.322916669051911 0
25.0 4.6875000031225 0
25.0 5.052083336528115 0
25.0 5.416666669875903 0
25.0 5.781250004033231 0
25.0 6.14583333738102 0
25.0 6.510416671422698 0
25.0 6.875000005290905 0
25.0 7.239583339506053 0
25.0 7.604166674125976 0
25.0 7.968750007979722 0
25.0 8.33333334199249 0
25.0 8.697916675860695 0
25.0 9.062500009671076 0
25.0 9.427083343134518 0
25.0 9.791666678332678 0
25.0 10.15625001249001 0
25.0 10.52083334768817 0
25.0 10.8854166811516 0
25.0 11.25000001496198 0
25.0 11.61458334738459 0
25.0 11.97916667946025 0
25.0 12.34375001292369 0
25.0 12.70833334511499 0
25.0 13.07291667765324 0
25.0 13.43750001088538 0
25.0 13.80208334365493 0
25.0 14.16666667353327 0
25.0 14.53125000442354 0
25.0 14.89583333573303 0
25.0 15.26041666500421 0
25.0 15.62499999488256 0
25.0 15.98958332836045 0
25.0 16.35416666104326 0
25.0 16.71874999219373 0
25.0 17.08333332471754 0
25.0 17.44791665847009 0
25.0 17.81249999193352 0
25.0 18.17708332505002 0
25.0 18.54166665810869 0
25.0 18.9062499938851 0
25.0 19.2708333296615 0
25.0 19.63541666578485 0
24.65909090697006 20.11363636434331 0
24.31818181387862 20.22727272870713 0
23.97727272112545 20.34090909295818 0
23.63636362933978 20.45454545688674 0
23.29545454074166 20.56818181975278 0
22.95454545175678 20.68181818274774 0
22.61363635870555 20.79545454709815 0
22.27272726938004 20.90909091020665 0
21.93181817642107 21.02272727452631 0
21.59090908415283 21.13636363861572 0
21.24999999070893 21.25000000309703 0
20.909090898365 21.36363636721167 0
20.5681818062032 21.4772727312656 0
20.22727271532826 21.59090909489058 0
19.88636362288735 21.70454545903755 0
19.54545453222531 21.81818182259157 0
19.20454544067146 21.93181818644285 0
18.86363634917439 22.0454545502752 0
18.52272726008306 22.15909091330565 0
18.18181816691119 22.27272727769627 0
17.84090907624678 22.38636364125107 0
17.49999998161302 22.500000006129 0
17.15909089129634 22.61363636956789 0
16.81818180107666 22.72727273297446 0
16.47727271035784 22.84090909654739 0
16.13636362113641 22.9545454596212 0
15.79545453028867 23.06818182323711 0
15.4545454400335 23.18181818665549 0
15.11363634812483 23.29545455062506 0
14.77272725866684 23.40909091377772 0
14.43181816866006 23.52272727711332 0
14.09090907805834 23.63636364064723 0
13.74999998745307 23.75000000418231 0
13.40909089754563 23.86363636748479 0
13.06818180839043 23.97727273053652 0
12.72727271853859 24.09090909382047 0
12.38636362812021 24.20454545729326 0
12.04545453791708 24.31818182069431 0
11.70454544876188 24.43181818374604 0
11.36363635991656 24.54545454669448 0
11.02272727049761 24.65909090983413 0
10.68181818161208 24.77272727279597 0
10.34090909059876 24.88636363646708 0
13.12245575810983 5.359375001489979 0
12.85937500007252 5.622455758928196 0
12.14062499745613 5.622455757501361 0
11.87754424071326 5.359374999451498 0
11.87754424189017 4.640624998510021 0
12.14062499992748 4.377544241071804 0
12.85937500254387 4.377544242498639 0
13.12245575928674 4.640625000548502 0
23.12245575866386 5.359375000530365 0
22.85937499942928 5.622455759299569 0
22.14062499843458 5.622455758066268 0
21.87754423944776 5.35937499725959 0
21.87754424133614 4.640624999469635 0
22.14062500057072 4.377544240700431 0
22.85937500156542 4.377544241933732 0
23.12245576055224 4.64062500274041 0
13.12245575835722 21.85937500106149 0
12.8593749974183 22.12245576046061 0
12.14062499962912 22.12245575875594 0
11.87754424065191 21.85937499934525 0
11.87754424164278 21.14062499893851 0
12.1406250025817 20.87754423953939 0
12.85937500037088 20.87754424124406 0
13.12245575934809 21.14062500065475 0
23.1224557587305 17.85937500041494 0
22.85937499688295 18.1224557607697 0
22.14062499958506 18.1224557587305 0
21.8775442392303 17.85937499688295 0
21.8775442412695 17.14062499958506 0
22.14062500311705 16.8775442392303 0
22.85937500041494 16.8775442412695 0
23.1224557607697 17.14062500311705 0
13.0357142863834 15.5 0
13.57142857334916 15.5 0
14.10714285783675 15.5 0
14.64285714470339 15.5 0
15.17857143070267 15.5 0
15.71428571720997 15.5 0
16.25000000702564 15.5 0
16.78571428904744 15.5 0
17.32142857412979 15.5 0
17.8571428511085 15.5 0
18.39285713616606 15.5 0
18.92857142211578 15.5 0
19.46428571101452 15.5 0
20.0 14.99999999601014 0
19.46428571160309 14.5 0
18.92857142040583 14.5 0
18.39285713577575 14.5 0
17.85714284336419 14.5 0
17.32142855637984 14.5 0
16.7857142655791 14.5 0
16.2499999775787 14.5 0
15.71428569556309 14.5 0
15.17857141150299 14.5 0
14.64285712475407 14.5 0
14.10714284117721 14.5 0
13.57142856006613 14.5 0
13.03571428124737 14.5 0
12.5 14.99999999867727 0
22.39911386523296 15.02787351071946 0
11.41665351269391 19.47325099219535 0
13.50604103476437 20.24332817025187 0
21.28609918190908 8.371915985499014 0
20.77438502064365 12.5321182072488 0
23.66698209856584 13.79090434318895 0
12.40963980605322 16.44998245723993 0
15.12295866835606 21.38380048057971 0
11.78949283981224 12.5249487226823 0
19.26085121128391 20.38701660414594 0
12.24383029308131 8.530762489724518 0
15.96828850385863 19.609411024288 0
19.99594546417832 16.42543574953211 0
17.52207818863038 20.77031077392179 0
21.5970963521996 7.09363992864678 0
19.11509669356569 18.87901705575766 0
[...]
CELL_DATA 4166
SCALARS Von_Mises float 1
LOOKUP_TABLE default
47681853.55455686 1796109.184932004 1803036.4181286993 47595859.42209842 54614929.203914896 50493379.30474477 52844291.97446121 2549740.2359992075 7269556.589458223 46567471.71148654 47209377.08625829 48049517.05140659 48356756.04821539 2550874.6076408336 46531705.45465934 48944385.75131043 45784104.66606429 55075740.15552062 48285255.359544195 44057215.44322893 45762390.42724658 10821635.086693294 35141748.61540777 22585381.850199364 55172748.18274485 16226965.876345355 24536607.604286734 40042314.52827606 20645651.136326574 41085139.58979482 58409752.21856899 5860562.288707861 55220634.69867204 53925514.77716665 25809514.429866698 57453130.56738173 48043794.40425387 53451808.92426548 48479201.28054207 48951691.979923606 48702980.822452374 14923646.177324172 53975465.11903338 53069180.32598385 16365673.244501643 48800807.738822855 53385502.264868304 41533534.35189209 34233499.37518474 30257074.276581913 46720713.77810197 53972061.089840464 22602790.797645267 28028049.167999774 46003930.28252834 29325238.9974369 47532236.616272256 4897664.661992044 5581710.4884787835 4979000.448794094 5804543.159917733 17837313.043990266 17521293.748542894 2389499.9882435706 49832649.78652463 49443675.54102395 11150778.776673356 32945382.824998673 12592800.485339202 52987723.80721567 49750878.732780226 16503008.01103904 29952037.46452413 34789261.77610518 16875585.165363446 34709907.83825714 31545856.3715026 22255779.51999601 18491941.323462263 124536243.5750011 36844742.62787652 5733699.257296263 16940177.25924626 49881556.44738334 43267436.64967499 26269931.758729238 15642392.23352421 14056213.659942491 39741904.3300225 5749797.320461192 53257584.11975851 46407306.10954042 36572671.429811545 44372211.63660252 48222979.21068885 15427301.81264771 5091920.721029569 48681061.18979126 48477581.883389965 45915889.55493542 26836650.79101419 24803914.27311165 46844985.469771616 36398225.68280889 2609024.8810262815 51250519.2732921 18150611.671804693 43569635.12683682 49605102.88768209 69199503.53751867 69201116.09721045 47674443.45737029 6264249.429187362 34773611.610785365 2855125.4026129064 11152684.521191573 49167080.7720842 18760912.72714633 35965180.982962854 45346802.576843634 47920458.433450304 52716342.80676266 30711830.357684437 111723396.74756755 47144994.8959241 46649651.48031721 39255318.82101979 49779996.2026358 244959.20690565815 40615943.40694963 3832982.2647428275 12930921.278671313 43761144.584022716 48464607.360661864 46729644.01805139 46347723.417467855 20626942.303649075 16819562.55942497 54968891.71606643 21844210.055470675 48678199.17585452 45258924.01570439 19438073.34799169 47416847.37112786 49026865.759504095 42018618.7889749 14615206.308519796 5838916.631715745 16989618.01213944 10983348.606314395 48017412.36740662 67537834.87624386 44933074.48350503 48038735.19341589 67525794.38903975 48968677.374531046 37635271.16205443 51933805.78063909 4730328.17915796 3850661.8257699003 49195689.96748028 48290219.465237826 33152028.59799301 68837539.27489774 30843101.983480424 68845761.40529512 48349405.12416426 31429831.236914933 47110510.14338094 48391972.10046103 43834386.34139839 51972057.71615128 4830173.195092686 35058836.05833558 50366500.988361284 51580446.71041895 78971159.14087315 36847302.647403434 36020225.633374915 23385419.629389286 4832903.829093025 14927941.73191281 30369910.558627535 3225174.8843800123 38966446.391705394 49521561.50614814 78988610.28925543 35502588.00250898 16891812.394645903 16584462.766117953 47150606.677243635 36377578.63931871 38073710.85773597 2963963.122263206 48564614.24778028 58452018.9255539 28623621.17929527 21657079.799521085 15779387.409562754 34431084.907276586 11010362.62971954 43637132.73358115 1878488.622475467 23825742.935427222 57269958.67403458 7323201.983455612 82227568.07782817 41424413.03695697 3983062.8190646395 52022338.501525916 48008745.40246885 28742850.162691288 29439005.33812494 58386591.46625839 45516649.36630984 45285605.05604611 38774219.187878475 43866694.18744587 5621019.518307907 29268615.9772907 4339541.415773152 41072946.106614 5976819.0468684 49261345.17672597 10296588.059367605 48188334.75294237 36922377.242030516 13080388.912450083 47826601.08823625 38082124.752004825 6608550.360425252 14580336.12305636 47549682.50925367 33052064.637020864 6614557.707012797 64632791.395399764 16705941.50721995 33737201.561077535 64664047.0090553 48053104.730212815 29445764.7672635 8872285.509196252 13073596.282270757 15822441.959526446 47890096.88856108 15576329.722826531 14771528.536572129 64398511.199945 42998602.88596577 13099952.182495834 14621204.764702354 38392237.31107952 64377613.106162325 47353441.22877867 59395240.787594855 52417461.99032618 50915552.66722049 57238132.96307212 57283530.93711472 38724813.14686647 34934515.80745401 61702123.175961465 48556855.02284993 50447688.23964379 67352053.07548828 49740493.79712091 48123588.395700336 57082297.46199205 49590198.76883194 44868432.709201016 38259189.69221597 37827020.36901123 57151440.004365064 37405262.273058236 12870025.993807249 14763351.782555485 30278583.9248346 37439257.61913377 2786351.049797118 25396861.62070219 56791702.81958848 25286072.201181293 60292177.500874676 34065324.526803955 39095979.11317664 44203100.079732426 47019293.88206935 12660213.394303562 36967612.84282664 48074535.79895911 204298245.095469 46481155.11152192 48213380.22134047 57016745.25764869 43018883.6581761 6238081.813809579 29596983.370640695 8624869.113330755 31529564.72913531 47665351.95820796 24130830.20407568 46034067.7913011 45824742.0666566 66317516.75871886 16692026.811009524 51248858.451530606 50826592.76585699 38135514.059797645 44800118.45702655 31550890.875242487 31932593.415621888 25219160.64794964 6744029.728156752 44383355.87262375 43636198.37276088 66334632.9117159 41700021.28677528 15271513.040972197 33716493.99259798 50131786.97822254 60359041.82550195 51272832.63998618 6181807.768663432 27922454.098956905 30154666.88423581 46376912.85465873 22853136.544792466 53005254.80862423 48105228.7254297 29639650.115806065 48125189.4820861 13567645.730353938 60632893.32712349 61928568.22600901 48327629.29686246 59286316.06541124 25819401.939866405 13255539.086225323 15698015.315410526 44418685.94669237 68860745.90822601 4779294.14054689 24166591.793396395 67233502.1345947 50178621.7891229 68878133.63595094 54172359.617214516 40319271.802529186 47444235.45280993 30386797.448644437 13186639.053308444 47873782.3385543 5957194.506913168 5156603.4782658275 64812794.021296024 57918751.94824402 29840434.69749929 38858097.31804759 54258100.681158945 59250656.34661642 45327627.16500163 36740704.64833153 142926390.17421648 7987680.920526276 50646118.01455157 48469253.657420196 47337764.351788424 66343835.96829316 55270885.691593885 62429086.10173482 9979041.572758513 2216748.3873608247 37483336.60778275 73999419.85021774 47495213.34408365 36973952.25610264 31130802.33610495 47749059.58637217 46677856.65734796 36817819.94121888 48342791.49455986 4483882.391778015 41117905.00747397 23223378.29482129 35852280.666977175 37111965.108219385 55458502.68347263 29882545.932791676 46294396.45301752 53337977.83781872 46202921.76968708 44857990.37594194 52067029.759903796 23285962.599353895 25301576.523074813 47262789.07450867 42740777.74943192 58838519.31593811 60398030.15987542 19278043.818377946 51785066.84795564 17014704.56686986 45661472.22654414 34280918.51812935 54218955.01958594 43376863.82471652 62879054.21605113 69046317.56582914 44338234.22551045 38687531.39091622 14435684.69812206 23614254.638057474 22853181.011519574 32753357.038665034 52208654.355309784 36208647.77066323 26931081.496966626 10040717.641170263 69047509.71062294 49340376.297806025 46298972.17158761 45042232.251135804 32375320.643376406 63058259.44683737 19072298.47753683 41696099.138882734 1783114.4027259143 44367954.59521504 21111397.873011574 21077699.059124336 46817840.00603336 27122046.323895328 31502023.348189395 47033649.92728576 36437628.6090838 26655192.854338195 46522047.93655741 66095134.082362875 47209693.30262885 51359835.690843455 13365311.232353333 34633788.3044331 45553185.46216434 41448466.11822035 55777063.99630995 48996900.53253502 63721567.35962568 21492074.92326382 63671703.8748159 49488709.81031448 3133503.753237007 66095860.26218383 35271517.1283776 47457094.87959702 39677498.86678992 16176301.743113957 16095386.532982117 52641285.7383427 44003307.85327603 38101379.60853532 6098675.282743689 45267964.71845136 6108194.689843945 35966563.57767073 74650503.36262125 49910424.62907526 74708928.16596165 35369246.88784725 16197091.500500448 12186820.072958352 20803764.202527124 43371218.21494292 18119818.143222094 94814997.89306858 94754554.07451199 48256342.88879477 56357613.07619628 35584118.83480297 57482482.05048994 48033612.97947966 11488864.509060564 41168967.04309321 58222991.40601815 16941059.343591478 13561268.97662228 43367301.34321607 4875799.649961653 3995425.7695403327 30469160.105901994 48306748.43761399 56422820.99225836 2253787.4525177553 18777680.939012222 6121074.725330169 60342476.91481894 14502358.53407232 72632528.17124459 43624361.0455378 18531735.72936841 72614340.20602857 37879127.77699465 5603789.652022015 8293589.90080299 35366474.05827051 62689192.2675967 49121950.64315534 21950099.77090684 48404089.83044516 4823930.185268918 60245987.62026512 33351601.235709634 47911428.47199638 62625565.391294606 26807677.399444092 26757070.675277 28940655.22636732 52323991.843532324 8770532.359389106 47371852.66048179 5844716.342600043 4152518.5072847614 40711116.89995859 46464493.76559404 41198094.377386846 34215095.58049285 34212015.26067559 47884504.87617641 30103865.807354875 52514149.86886053 19173876.687172465 47605005.88323969 19165217.763383158 5309527.131977756 89644582.62893234 34604850.637908526 44900517.76707788 16005757.289843444 16005757.289843444 52932303.68260177 48899338.694610216 39752226.05349522 53919796.79867815 39006713.03144984 76820136.28080374 68607873.85875024 32942857.872036077 14280676.56422915 47892358.59230248 48741269.15406726 47988262.72288715 49258080.99560441 14804121.859585008 15008118.27424421 11540086.541907629 41169637.011227615 38008058.97570878 62231353.07395583 40514738.24247879 41251430.54103057 38787189.72662513 48868447.79923016 50818646.69498118 37942136.73319258 50458094.11705028 38059665.099789344 41517973.1201663 6534246.52849794 4863882.18568868 4696808.758431732 6303035.555486205 39221937.55715987 41998939.9660015 39302217.984405264 41098321.624960855 52243335.07310713 38348849.27797292 58370395.239360824 49082919.49230896 47735677.92216757 48864601.11823036 842577.5399542951 36211869.40343188 43692884.170128755 48190311.0930898 8775976.925313978 53527614.39990163 56395959.30482784 47672084.4210559 50170760.17265764 6740844.198724342 20771664.557972237 91539600.78533013 55485294.28787838 25543608.820156112 52580175.54153764 20736001.94007995 46738218.44461674 81222536.3079657 46224398.86424095 45968564.29681304 22063243.068757873 7696128.863905253 13708590.308191575 44004609.4313418 2818734.2984371227 10284657.854449373 54173606.517688766 47459385.88200906 27653843.259154093 46687916.51057908 32924404.193558972 2789685.4568975247 56742089.92948056 8331251.006583392 12796828.729794744 2625503.9636042845 48768763.31600898 47111809.15950221 7088505.886738632 10311993.081673328 7248445.666428091 10140863.843765933 48336568.608707346 7966536.623010913 11701896.125493282 49590622.53146988 51517717.74537436 46366658.457824886 46831348.54542171 62206190.44016641 40169386.524852246 16377903.23473207 56671404.84697857 21120413.0354032 22522840.476788033 27093837.519433532 49048138.12020106 32780105.08323559 36170449.4854119 4270306.636594211 13834567.862372212 46127880.117263466 43731498.54352196 51440464.44291231 53565870.44420553 19427751.815269247 16242925.975881843 43845945.45710769 56426016.77845157 8069538.262518774 25781324.92696153 15721225.3180973 19800904.901365023 29197134.641958404 70458971.14350879 49715844.466663465 26514880.523723736 45579420.11773013 30524891.72486173 29172436.228676893 93998300.52987434 30623448.849109277 45249431.79679566 70483633.26227881 93990263.19545676 17716918.48596982 52941896.93968835 51101701.721709706 48169327.21586096 48626045.252242036 13519657.26857002 52533040.51107341 41997626.290449485 17219425.20071837 37412987.806684345 21839878.257059317 58698449.21364399 18888189.537693493 46237993.973503344 30045098.70723298 48518151.62612151 55303400.42554448 16693281.913193518 46907331.30607582 21775527.953677528 39766056.1173843 105284757.67829734 433306.8319561409 36662160.422648326 24880875.402056683 65429868.49207354 125826738.72372557 49629946.73940108 14880068.18607144 16529582.504865011 33765850.96529864 48624272.26035772 36321161.14010898 48692938.97956339 36080093.8668977 33672968.20204211 48448457.2656177 56568193.04343949 9908749.835356966 53001893.65845064 26753510.189911943 39411626.94280761 47812315.552563414 38368625.60624394 14384091.542180603 1048811.9318754089 7711151.00010428 6082201.073258448 40769154.24897166 12779413.278735824 45428235.497888215 44596480.52459789 28598051.924728956 28518396.17488304 1961334.7660483993 41771507.67746962 8763901.887484899 53276574.52962311 48001344.31370628 56686051.87440939 47908797.92746232 46650429.32992786 92707785.14767368 88584380.59447303 57615424.90799287 50382297.81392577 40427220.176546775 46341595.77139145 17036145.10023072 43852340.70453186 14953704.804033596 31779582.8496768 66708103.87716282 12846658.232153447 45720157.22503269 48386022.43479745 18752141.04051192 33300695.496447343 36839591.592281274 27446209.038886394 36995424.24013393 53024544.08125613 50695072.54938853 10395249.240912005 46000667.41069606 27382509.538355418 47607932.95306229 46715095.48513914 12180017.182301505 3120544.8091288297 47598996.66458034 4437536.386260059 50158996.58861509 48364003.45922319 46556045.5887599 29465996.217019834 44631056.33048189 33081039.808111444 43263639.26571302 47984346.81613123 66732355.06718487 45136519.61833315 52499512.764849335 38524489.960836425 46964028.71913719 39814391.87607924 25086597.022763856 28452538.831918743 3104166.743605112 8887296.382507827 18839860.81465957 11583028.940565202 48500078.52271897 18375277.154313184 31277137.904808756 43703694.79523435 5728220.247872056 12371543.568711134 12946533.808521196 9993231.898406668 12976693.475128574 9996039.967640812 71924941.70634726 10144668.641965605 47284354.64899032 48152285.57298806 23439292.704734817 45377069.291244745 69967050.38939208 87385873.71648093 54073091.39786927 14148604.12915647 151501808.71307245 14582242.487590043 13204304.826867266 69979767.62213221 44802912.00634441 63863768.14633052 33000492.3620266 48802695.82710633 53296757.63546169 95459825.77857211 1107951.4281701685 49098120.034904964 39292562.53608024 26704686.529329266 23172350.83836855 42703654.996808246 31378783.347652208 48036731.10574219 26642513.006462157 10219298.947225891 48622549.37856305 61551482.81968518 48797641.8065938 36820588.81834313 3333207.320070801 49931507.125098094 49957139.69986119 50750908.64550748 16704244.169596834 39157600.80355319 52628231.243910894 46285812.96842224 49220733.42661956 48442152.931004606 113801319.55470042 48723164.57493013 47443169.16882582 21466451.958032377 57254901.86577571 37065272.41268056 88631094.79512747 25044139.790921766 39661571.654909715 8602271.491610648 46965387.286384195 51998030.09838109 30556261.23371392 53126591.419040576 81549360.31396176 47369420.98521222 44110931.69654925 9908469.61522341 22340656.662146684 14330148.032339944 61970315.810564116 48497821.30030613 18738055.122288182 4604981.265753079 104291473.65823421 39854341.433940925 95516588.74772608 50491844.76724477 37091665.19252805 50167187.56395289 35104523.675626025 1127770.0387840185 51302376.201325774 47951706.508336574 51866455.27652146 34717374.607144974 46404113.55423458 50028382.36152564 30807449.60048306 38849518.20583773 23793349.307773497 48099657.13383656 28888260.85537014 25414074.15835927 51391251.51773014 47752743.143201515 41523166.16651127 33950590.41987078 10178756.87035954 34190850.53472021 52947881.79168633 47516953.5905648 38313001.41966113 48715793.039821446 75466118.54264095 39251062.816384785 16705239.809694605 27826348.031717837 50349458.688875064 47953595.56470452 67376127.06538962 87186844.8758098 52370719.74759929 52344995.224027514 25084397.70003012 6174540.5448576575 37196705.94726364 48107191.5529207 48966501.97806818 48354179.24902105 21332183.310830675 48681506.61727269 60644199.63127427 15891101.893463608 69541952.72144325 37770981.12849172 50166106.17136801 37742403.093000926 45089975.74870204 60546974.36610274 48012285.410561085 47513254.62782006 24994511.845546138 29748731.83036551 48254436.19865672 36979765.98468411 57111154.13412581 48501807.75435045 32077579.45238699 23796184.35266648 10051781.837670797 8107290.150372486 48564580.4122587 16541977.613237154 85538114.25783558 48409390.399785765 46513363.06951317 60214247.79898708 40686628.39894383 32569379.561622176 12320519.22542619 46637967.09941787 9735502.224367298 148493019.51856676 91110701.82527375 17690443.934987787 52356872.24261051 48784860.45062486 49476283.51760742 49091004.04420543 43230201.80587992 7571274.598744875 43417997.00220551 36122008.63507773 47237597.35076776 9253710.17994314 40824735.455951944 8137702.05757086 51435691.17426625 49274074.263870314 116904052.19197208 41403675.21828287 48641564.18353848 48675945.1699518 41104029.85362632 37249351.49339443 48314606.49496095 46154230.46182064 46878876.65120101 79134044.42607741 53244713.8576386 77106143.98616768 47453526.76211345 37781360.704348676 48834615.23761409 5545918.503368626 53277592.897271425 12207240.804153377 18274535.41040843 47736544.30737212 44070036.48882729 10079009.796725206 32894135.37216777 55752463.004341014 48055764.090223566 42952160.08993754 22661278.031448573 47283914.1712004 31608055.949897684 18541054.92299027 18513526.382053662 39368617.75038122 48755820.420130454 1455770.480327958 7234451.956173026 39897551.15114428 14475807.747486537 2027760.3220637606 45743591.53640991 85082197.02327448 7117939.1592552345 17859805.98955182 29271336.3101394 48302437.83985631 47131916.35296056 1235342.1826832509 52956332.17159209 40460839.87925213 28576111.028126348 49766987.36404285 38320738.5408844 34154409.45699818 47014355.0100588 38012515.93462864 12865472.955539303 52432772.566445984 35016914.6217433 6715470.47126933 48913385.785876356 31393182.292944193 23517189.044412058 3388700.13314609 3344582.842504495 3577792.83384298 25191672.862742383 25223379.99739743 32394223.809303507 34940906.276271015 49142793.988430314 49102516.904596165 14874337.614043135 38038816.68564287 19642069.427379604 27690608.53193003 60395272.54300864 37162389.303828694 37463100.75765419 13640913.473994479 31784785.887519922 49821062.5882623 5510107.915533799 62522458.060193725 43219470.02535446 22504815.382505033 2051255.9477066558 41909558.61599939 18368517.653329417 48489862.815867394 38041380.2679698 49909003.60337691 22451233.578203633 38247136.63208026 44793364.324314386 45305887.302040316 51189339.571859404 28763264.528037492 48058583.825786114 39500679.81084311 42324370.70877106 52355543.29824722 51715452.22195155 34022096.26280513 30285065.988978755 36430607.11496929 52058374.33065292 34102771.51119868 8218926.0634248685 6397824.500487454 34480084.20957832 47820763.316652134 41503534.617528625 35482087.896747366 50016492.873635724 39328154.642055206 33860136.51150932 33083669.26677015 24064779.167052288 50446766.59734226 61997662.49447777 48808920.0191331 59524724.52485227 71529916.21304391 48824113.61891345 48539095.6062739 32716114.18484809 16571200.728082012 16904218.423586667 46804952.0117251 48032840.460869744 19869563.540617153 48685192.98756407 21019248.342207912 28674346.99175705 47242123.83878533 85399879.40675515 37110140.8630688 63114929.05292523 39958261.08725428 41024448.87290388 87152680.16921686 46