# vtk DataFile Version 2.0
Really cool data
ASCII
DATASET POLYDATA
POINTS 1941 float
10.0 25.0 0
10.25 2.5 0
14.75 2.5 0
15.0 12.5 0
20.0 12.5 0
20.25 2.5 0
24.75 2.5 0
25.0 20.0 0
13.421875 5.0 0
12.5 5.921875 0
11.578125 5.0 0
12.5 4.078125 0
23.421875 5.0 0
22.5 5.921875 0
21.578125 5.0 0
22.5 4.078125 0
13.421875 21.5 0
12.5 22.421875 0
11.578125 21.5 0
12.5 20.578125 0
23.421875 17.5 0
22.5 18.421875 0
21.578125 17.5 0
22.5 16.578125 0
12.5 15.5 0
20.0 15.5 0
20.0 14.5 0
12.5 14.5 0
10.00403225807093 24.63709677361622 0
10.0080645161563 24.27419354593253 0
10.01209677424696 23.91129031777318 0
10.01612903230577 23.54838709248107 0
10.02016129035602 23.18548386795797 0
10.02419354841103 22.82258064300752 0
10.02822580648097 22.4596774167125 0
10.03225806456681 22.09677418898731 0
10.03629032266798 21.73387095988129 0
10.04032258075012 21.37096773248903 0
10.04435483879861 21.00806450812494 0
10.04838709688005 20.64516128079578 0
10.05241935495465 20.28225805408125 0
10.05645161303756 19.91935482661994 0
10.06048387112473 19.55645159877427 0
10.0645161292065 19.19354837141498 0
10.06854838727757 18.83064514501887 0
10.07258064536606 18.46774191705492 0
10.0766129034346 18.10483869088549 0
10.08064516151669 17.74193546349787 0
10.0846774195907 17.37903223683728 0
10.08870967767305 17.01612900942542 0
10.09274193573161 16.65322578415481 0
10.09677419381719 16.29032255645265 0
10.10080645190677 15.92741932839017 0
10.10483870998482 15.56451610136578 0
10.10887096806891 15.20161287379791 0
10.11290322615036 14.83870964646787 0
10.11693548422069 14.47580642013797 0
10.12096774229187 14.11290319373216 0
10.12500000036691 13.74999996697819 0
10.12903225842383 13.3870967418552 0
10.13306451647886 13.02419351690233 0
10.13709677451437 12.6612902937063 0
10.14112903255518 12.29838707003324 0
10.14516129060447 11.93548384559769 0
10.14919354865313 11.57258062121796 0
10.15322580671374 11.20967739576328 0
10.15725806477384 10.84677417035441 0
10.16129032281338 10.48387094679534 0
10.16532258087472 10.12096772127496 0
10.16935483892187 9.758064497031445 0
10.1733870969857 9.395161271286613 0
10.17741935503843 9.032258046541457 0
10.18145161308684 8.669354822183982 0
10.18548387114214 8.306451597207326 0
10.18951612919923 7.943548372069355 0
10.19354838725904 7.58064514668658 0
10.19758064530033 7.217741922969729 0
10.20161290333043 6.854838700261147 0
10.20564516138313 6.491935475518151 0
10.20967741944725 6.129032249747367 0
10.21370967750003 5.766129024997362 0
10.21774193554038 5.403225801366053 0
10.221774193581 5.04032257770997 0
10.22580645163059 4.67741935324665 0
10.22983870969496 4.314516127453131 0
10.23387096776351 3.951612901284103 0
10.23790322580145 3.588709677869551 0
10.24193548386297 3.225806452332522 0
10.24596774192589 2.862903226669555 0
10.59615384879596 2.5 0
10.94230769598397 2.5 0
11.28846153932223 2.5 0
11.63461538477885 2.5 0
11.98076923215367 2.5 0
12.32692308114312 2.5 0
12.67307692536209 2.5 0
13.01923077070862 2.5 0
13.36538461224543 2.5 0
13.71153845566042 2.5 0
14.05769230141394 2.5 0
14.40384615085709 2.5 0
14.75892857144616 2.85714285784649 0
14.76785714288078 3.21428571523109 0
14.77678571432 3.571428572800198 0
14.7857142857668 3.928571430672074 0
14.79464285720148 4.28571428805915 0
14.80357142863987 4.642857145594823 0
14.81250000006625 5.000000002650031 0
14.82142857153606 5.357142861442594 0
14.83035714299431 5.714285719772646 0
14.83928571446538 6.071428578615361 0
14.84821428592949 6.428571437179454 0
14.85714285740048 6.785714296019075 0
14.86607142885319 7.142857154127467 0
14.87500000027791 7.500000011116425 0
14.88392857167472 7.857142866989042 0
14.89285714308988 8.214285723595362 0
14.90178571450818 8.57142858032706 0
14.91071428590076 8.928571436030644 0
14.91964285725977 9.285714290390665 0
14.92857142864635 9.642857145854018 0
14.93750000005199 10.00000000207956 0
14.94642857145045 10.3571428580178 0
14.95535714287157 10.71428571486281 0
14.96428571429883 11.07142857195331 0
14.97321428570877 11.42857142835066 0
14.98214285713628 11.78571428545122 0
14.99107142858074 12.1428571432296 0
15.3571428591223 12.5 0
15.71428571719138 12.5 0
16.07142857423201 12.5 0
16.42857142974857 12.5 0
16.7857142846084 12.5 0
17.14285714112862 12.5 0
17.49999999772317 12.5 0
17.85714285297952 12.5 0
18.21428571083795 12.5 0
18.57142855939082 12.5 0
18.92857141386655 12.5 0
19.28571427430228 12.5 0
19.64285713574168 12.5 0
20.00892857145444 12.14285714182253 0
20.01785714288121 11.78571428475149 0
20.02678571430391 11.42857142784392 0
20.03571428575173 11.07142856993083 0
20.04464285716307 10.71428571347709 0
20.05357142862058 10.35714285517672 0
20.06250000009985 9.999999996006125 0
20.07142857160473 9.642857135810823 0
20.08035714307449 9.285714277020388 0
20.0892857145293 8.92857141882806 0
20.09821428593644 8.571428562542428 0
20.10714285739586 8.214285704165588 0
20.11607142887573 7.857142844970847 0
20.12500000035236 7.499999985905506 0
20.13392857174129 7.142857130348313 0
20.14285714310267 6.785714275893214 0
20.15178571450528 6.428571419788685 0
20.16071428590087 6.071428563965252 0
20.16964285732718 5.714285706912793 0
20.17857142873676 5.357142850529643 0
20.18750000014888 4.999999994044952 0
20.1964285715605 4.642857137580068 0
20.20535714293256 4.285714282697754 0
20.21428571435444 3.928571425822371 0
20.22321428574628 3.571428570148774 0
20.23214285715693 3.214285713722903 0
20.24107142855655 2.857142857737868 0
20.596153845103 2.5 0
20.94230769181397 2.5 0
21.28846153698369 2.5 0
21.63461538161964 2.5 0
21.98076922946485 2.5 0
22.32692307653609 2.5 0
22.67307692028468 2.5 0
23.01923076562454 2.5 0
23.36538460449588 2.5 0
23.71153845024273 2.5 0
24.05769229413811 2.5 0
24.40384614838844 2.5 0
24.75520833333718 2.86458333360238 0
24.76041666667798 3.229166667458308 0
24.7656250000173 3.593750001211001 0
24.77083333335809 3.958333335066103 0
24.77604166670141 4.322916669098772 0
24.78125000004511 4.68750000315787 0
24.78645833337953 5.052083336566992 0
24.79166666671298 5.416666669908391 0
24.79687500005813 5.781250004069072 0
24.80208333339111 6.145833337377437 0
24.80729166673437 6.510416671405975 0
24.81250000007497 6.875000005247864 0
24.81770833342114 7.239583339479573 0
24.82291666677311 7.60416667411762 0
24.82812500011363 7.96875000795414 0
24.83333333345632 8.333333341942213 0
24.8385416667967 8.697916675769235 0
24.8437500001361 9.062500009526882 0
24.84895833347101 9.427083342970692 0
24.85416666683082 9.791666678157132 0
24.85937500017594 10.15625001231616 0
24.86458333353615 10.52083334753068 0
24.86979166687154 10.88541668100752 0
24.8750000002114 11.25000001479821 0
24.88020833353079 11.61458334715515 0
24.8854166668455 11.97916667918503 0
24.89062500018088 12.34375001266188 0
24.8958333334951 12.70833334465707 0
24.90104166681805 13.07291667726343 0
24.90625000014924 13.43750001044626 0
24.91145833347969 13.80208334357788 0
24.91666666677206 14.16666667404435 0
24.92187500007075 14.53125000495268 0
24.92708333337507 14.89583333625455 0
24.93229166665025 15.2604166655177 0
24.93749999993438 15.62499999540688 0
24.94270833326972 15.98958332888 0
24.9479166665939 16.35416666157307 0
24.95312499989663 16.71874999276385 0
24.95833333321826 17.08333332527833 0
24.96354166655782 17.44791665904754 0
24.9687499998933 17.81249999253098 0
24.97395833322337 18.17708332563618 0
24.97916666655323 18.54166665872609 0
24.98437499992156 18.90624999450882 0
24.98958333327948 19.27083332956353 0
24.9947916666537 19.63541666575921 0
24.65909090697006 20.11363636434331 0
24.31818181387862 20.22727272870713 0
23.97727272112545 20.34090909295818 0
23.63636362933978 20.45454545688674 0
23.29545454074166 20.56818181975278 0
22.95454545175678 20.68181818274774 0
22.61363635870555 20.79545454709815 0
22.27272726938004 20.90909091020665 0
21.93181817642107 21.02272727452631 0
21.59090908415283 21.13636363861572 0
21.24999999070893 21.25000000309703 0
20.909090898365 21.36363636721167 0
20.5681818062032 21.4772727312656 0
20.22727271532826 21.59090909489058 0
19.88636362288735 21.70454545903755 0
19.54545453222531 21.81818182259157 0
19.20454544067146 21.93181818644285 0
18.86363634917439 22.0454545502752 0
18.52272726008306 22.15909091330565 0
18.18181816691119 22.27272727769627 0
17.84090907624678 22.38636364125107 0
17.49999998161302 22.500000006129 0
17.15909089129634 22.61363636956789 0
16.81818180107666 22.72727273297446 0
16.47727271035784 22.84090909654739 0
16.13636362113641 22.9545454596212 0
15.79545453028867 23.06818182323711 0
15.4545454400335 23.18181818665549 0
15.11363634812483 23.29545455062506 0
14.77272725866684 23.40909091377772 0
14.43181816866006 23.52272727711332 0
14.09090907805834 23.63636364064723 0
13.74999998745307 23.75000000418231 0
13.40909089754563 23.86363636748479 0
13.06818180839043 23.97727273053652 0
12.72727271853859 24.09090909382047 0
12.38636362812021 24.20454545729326 0
12.04545453791708 24.31818182069431 0
11.70454544876188 24.43181818374604 0
11.36363635991656 24.54545454669448 0
11.02272727049761 24.65909090983413 0
10.68181818161208 24.77272727279597 0
10.34090909059876 24.88636363646708 0
13.29836716804519 5.460937501850858 0
12.96093749805554 5.798367170236416 0
12.03906249886036 5.798367168455805 0
11.70163282969542 5.460937497937477 0
11.70163283195481 4.539062498149142 0
12.03906250194446 4.201632829763584 0
12.96093750113964 4.201632831544195 0
13.29836717030458 4.539062502062523 0
23.29836716853658 5.460937500999747 0
22.96093749805866 5.798367170234614 0
22.03906249972091 5.798367168952648 0
21.70163282978201 5.460937498087458 0
21.70163283146342 4.539062499000253 0
22.03906250194134 4.201632829765386 0
22.96093750027909 4.201632831047352 0
23.29836717021799 4.539062501912542 0
13.29836716891448 21.96093750034519 0
12.96093749723044 22.29836717071278 0
12.03906249968323 22.29836716893089 0
11.70163282943968 21.96093749749452 0
11.70163283108552 21.03906249965481 0
12.03906250276956 20.70163282928722 0
[...]
CELL_DATA 3560
SCALARS Von_Mises float 1
LOOKUP_TABLE default
19357703.05575487 51415991.05640899 50507889.60675217 50834286.50074067 46292798.43718032 46258927.08857115 28862545.756968323 23934261.727404103 38027162.35929403 50963469.26515766 53685434.768511385 48384101.088907324 34982493.983507454 27957584.36804665 19118933.614146743 72635862.47694317 34723413.064292185 55612715.54817224 85214614.9423959 46567719.75545007 36164839.74441903 36282287.077676855 20951057.727705553 50873446.878266335 8573457.17201697 36943152.520576164 48505074.57510677 1595180.9805079885 38632990.76689008 48378329.65677471 53900270.38300798 33280867.02718752 46671118.52482807 40958413.9489876 32812765.918644436 31324053.44633568 4716898.7433148585 46266776.00758735 55192178.15196153 41870466.238807954 58770171.802693315 51072331.92864134 45661156.753252506 4723788.296147572 37989955.99487986 43584466.62985775 50663549.28463609 53705928.28739297 61238165.88555991 22903651.90601634 37460247.80559833 49096907.524106234 90249335.78663069 49907743.692816295 41687304.56979709 35212959.66270123 31716043.749117788 1840407.0339509351 36475409.86283833 51319215.369649164 16361828.831053799 14923487.975561373 46034772.770810835 28141263.294651236 1144611.4706830047 27565281.2387178 220373073.21748313 57681967.81801102 51355835.75755024 5045317.594090935 56191137.541481234 53830947.62634476 34414024.41354683 53776425.67371992 53845945.36263685 44999983.34973183 52108814.4264216 50781686.99087825 54138450.803072326 40792187.58594046 48039835.009142146 27456951.492921665 85344964.07605118 49243299.25258667 27464529.55211483 481416.38293248735 64396095.281899564 51523301.91480816 49501794.95912371 48630828.235824354 31768251.324302174 36147015.09985556 41925801.44237371 44975265.595842645 67486810.89385359 58658105.15970993 7858329.9856925495 19983395.045593347 5957683.437224742 33670353.86254772 32062091.015573483 75184514.43701473 45745283.52837343 25633059.30218794 12156030.040675785 18273014.685691882 23513526.0377251 52905801.03727705 20436692.241752718 52612438.17877726 33466134.031396117 40640130.070191056 49877344.829999544 49993548.81812896 34871430.54022437 51127858.91080537 63078766.67077102 54390750.71379079 40453863.89466244 45323708.76150224 55354011.029129125 13118741.36071112 7472946.565583728 68648034.15229163 37006264.03970377 53568997.423573084 53597862.03833283 58966117.89428596 22722183.304743145 48117462.99110938 33322936.448222958 65296343.02477888 50700711.08015792 42283871.12770189 50600394.169417165 50327494.305470556 46355818.31623816 37262798.26445157 24244982.640670042 50424333.651110284 24922914.65494781 53008809.89115794 52305051.39079251 35056280.59337247 48598224.96774586 15786545.172407953 22056928.273591895 16439007.364330383 8121485.304617552 50522163.36323653 5494612.961986152 50129629.969752684 38996978.51739773 51851991.68768063 69306706.47026575 32962212.954620875 50705076.11781516 47684323.6797676 48969905.06620623 16883600.514618773 56021767.56353564 50197815.21902838 423824.7593931884 72123609.16509855 48420981.63019482 52486292.80867026 3237982.5412525563 61090014.821211964 24784602.288498808 30780377.252647195 47593755.15717302 66479967.33167879 12623132.233478528 57233756.315030865 55137782.958555706 51083061.49325411 22486144.494661614 41782022.64441758 12679755.686137157 89566547.32816267 46816329.56080832 51188987.23499665 61709487.49281252 27435473.615218613 49575782.044859506 31223561.446264856 52060734.1747175 11804003.682671672 57614883.07812048 23511631.77797034 40275031.388626054 55576657.91480978 32686225.735616833 38977349.788416654 106448688.7706843 15937219.716835601 34190237.048678786 59413440.68715303 52483603.84925637 19606416.61683299 29266339.93022335 40894339.82434667 27092386.2786579 44651238.780801766 51668287.063565575 38276451.695552334 34546878.3496179 99522411.821014 22016028.410529375 16284930.745911434 34569420.40896462 38284874.561344184 49145803.72960752 42966668.26683483 16318577.918273177 32638418.27810164 25580349.463369574 56030498.83415711 53386240.7998074 7606855.866739615 23698044.61760119 38675168.6504164 50836811.78772832 54176297.97444168 50779545.70427161 20800271.76226826 51507262.712689675 17975297.863264423 16532211.216479257 47438129.60422588 48535656.74241443 40367557.62029406 47001680.01117964 5623463.659425294 60096343.70759504 53187091.067061916 40944804.07386171 51946511.125176325 51960677.057545334 41344271.31824896 50728008.49326251 40533722.65848129 57006750.10745975 54838711.87236133 53227836.11923251 26559795.795027927 37242764.479585476 52702816.260362014 60560565.52058478 46361103.971983925 45955972.091102615 79217713.05624118 49693578.463519126 49605833.35111688 54196801.18298347 32643755.971833475 12174044.316315494 18767564.161829237 51524830.09158357 54532715.85125175 41797193.19739807 37159210.72280588 121356615.61222795 57721697.42903018 60921531.198803775 28506912.705884725 57712278.39581569 62238490.274011806 35670207.408487044 51730745.92152942 29360753.158601977 21634823.859091826 24811876.74497307 42751606.14866103 33219396.03361915 58436124.51597445 33926200.585034825 14326197.59563825 16356732.26574764 65570821.1327154 26923556.39826719 60669293.370167874 29699710.87969871 53057961.59806408 43915424.12574191 24547305.19265185 11170153.060043901 23819298.75975805 50511812.34864987 63641452.626558594 64980881.09676325 21814189.04931811 53114520.327079386 240403670.09043446 53528333.85189331 54171647.536093175 40116246.61901146 51512054.96031451 39563361.34639123 47569513.02632583 54671447.99567502 42978515.70238835 21297429.63270639 47767934.3212856 30403137.338704567 54512796.37596321 60803851.31615637 52095183.98921112 54421627.1486322 67977644.30080414 53842817.336369194 54399499.38580134 11342240.67819421 15398688.25416853 67313024.77905275 46758928.4131846 55665409.23066482 49218086.20477024 13628125.0575512 29406787.183486912 54782597.09045047 46099354.207612954 12075500.689415628 29687177.61230446 38420868.919970244 48400041.53733592 13546868.752899768 20043324.46389554 53304381.100135386 47835167.091822945 49641937.38142274 71838520.76146625 66211175.42059652 16440581.18444396 53688484.88970311 48029183.44224745 62358366.33749277 35418941.058361106 47598582.67552085 50468066.19634656 45101196.39274607 64764141.923933625 21044066.968533278 50187350.20079735 35512118.840354346 50546973.108766615 47301514.28524777 23607660.190475233 52655141.95910737 15528030.54415221 54294123.14174064 14166886.572076613 24386426.479345936 14948167.127039842 50620915.28139475 51953277.88980978 34617106.30017346 48558505.52651581 53777413.32463921 14399343.318031715 36354971.89767286 18258026.540173598 42860823.79074102 47442163.47221595 14080798.069055298 41636639.79488543 52921907.35159203 32557526.23130019 33458396.40141178 55184124.34324853 54883437.64782231 50683613.1853069 34238073.87946274 5535956.878989141 60628944.364756614 54958716.30395186 86066654.35390727 41272535.41743448 8124759.078428962 47425321.71183104 50078417.81473391 38591541.415639214 50481339.767664924 31028220.350520782 5905978.440211051 42674903.65173652 47492692.41835334 51196555.01504113 37823461.73518863 81291224.42342262 41800202.191669 11250630.893856587 20507841.143025868 60269999.880332306 10538006.148354985 47286109.31680476 50502130.869044885 8624180.637270752 35066846.28117149 16353138.93606212 21099387.00815612 5033695.068526978 6170662.911756742 5053341.630310537 123358716.00557801 49179279.776801534 56498134.44833592 37775224.68517734 52248950.22283783 49316686.94851385 114415037.69554749 45759428.912310526 90503483.28679131 51042599.87971892 58465501.51377141 51160563.70892554 53390205.196193755 28138943.425127443 29780651.1594022 54092875.359971136 12548164.389507258 48451784.87143591 29790366.134222202 13639451.969952384 17523382.604285203 30997886.042262893 56710965.09048142 54034849.952323906 33314870.826710537 40805055.411543414 16899945.98673917 16899945.98673917 87667039.02419202 34928964.60874362 43787931.262784496 65422362.47851822 55640739.40860912 38422505.871214084 49771986.992544815 22077497.83577816 51895865.2740083 27736568.26700059 57584318.295067236 7959013.789732359 50820105.6440926 2865392.542481349 51990071.75954471 53439271.15472209 51223447.61112198 67621844.57740791 54222609.38695663 48303893.85536051 28800599.043217957 52528936.673656076 35881232.97805023 50942617.74160908 51751758.53837576 49651581.123096675 44804066.98652867 46736770.9046005 47258273.13230722 36727004.89938627 23051388.28640246 39768389.75642903 51803837.21174873 53552873.56027053 35644447.50653578 38348581.55790003 43435691.27790066 50632661.7300968 50171280.255170785 14347980.419236224 15271954.856167372 15565845.71042059 51380850.15715295 43051941.75617542 2401550.2368071745 83552468.17894708 22871126.072290163 16740267.233212478 52977347.52588794 36709015.185492896 54791381.60562571 64313337.46106804 52473090.45992485 21248024.28632094 53178564.08422745 38843410.636353455 42542117.62484002 46281513.539466105 51805118.42336744 21447212.4735646 21457882.394244965 13974080.35830829 43853643.41863177 21271191.73889632 54354328.414360695 96337973.46299505 24641515.649559636 48228623.87786642 10291888.86816173 17782385.47502445 54265284.710058026 30406465.88962054 44281660.45502861 20087346.847606897 32387698.466090165 54654628.61513031 10496388.498924397 45737618.49372659 9186391.608827574 41109348.4146709 89791740.78666063 25714173.594170865 110757632.15036577 47668013.326581135 61730894.82336949 46391913.40496321 6705569.926507794 3672592.1033269274 6036779.841775914 3689485.31344747 55085055.80293161 18425802.051377114 54346162.80252712 45591301.10568745 45692909.47119863 45333366.41168912 49099566.83577198 9975095.51619076 41002201.36888798 51830744.887670614 62659357.662993506 44843814.89097043 55797745.341042176 50307271.670513414 41893111.14844309 35482961.607493944 40039634.29918318 49931242.269017756 6647354.837888378 9119333.752908945 38522315.02376133 27654032.429124985 34284632.65065321 48884139.999675125 49895510.95257615 1194582.95673656 46193359.08385256 50081218.409467086 50609065.717210986 32275830.832772415 49073667.57418938 37732279.717935696 63766875.28240605 47204784.822740994 2329804.9290540223 51495871.85569941 57734502.83317078 27185697.047075644 53947308.42776203 23418473.54078548 19837210.354682963 62726207.40273019 42949304.25514074 37310192.80766945 56769852.69572415 34759951.54907974 52727366.62875793 53027058.00268761 65264151.15718537 49112156.338951334 37945880.38964677 41373869.55743822 43453626.87117112 13213845.65222422 41085935.09112883 11485623.529447485 50361792.41329823 48765316.76508029 53599803.38559532 47780550.80270316 92426330.3308488 20708135.612588983 46640192.91190161 16453754.465184102 22211369.016574092 52210754.07898999 57925767.34405022 40779933.428265646 48386698.135303676 16163484.473903637 52055302.927401535 63264466.05904226 5148272.970224765 49184133.98374584 50536545.71160594 45305916.83975454 38320833.72766831 66359144.653714195 38041383.10870397 44841035.03778589 50648049.52413584 3621641.253855514 58057521.97890461 53998963.07366509 50490738.92987143 32151259.25679176 65284967.91687056 53953709.297642894 49773252.50900748 24183087.91169926 1308114.2910270393 25587800.42153288 18244775.16592767 11668552.13268803 24375169.950875983 48855251.8033816 6648525.802196166 37980645.0885597 25911574.99244459 56896668.83036165 50471915.24937066 5863700.882814354 20542801.118770115 51333081.492099054 14543511.036760805 54360832.54951878 50921224.60137193 5334042.473920609 81722991.83250766 34476949.96189831 48727231.0506842 2252914.9266893505 49619586.9195048 68029166.03081398 22803576.88464127 45909738.04129356 35919705.552427605 52083827.726048 54070272.39804207 51837329.12735818 56574907.24240107 8074427.639204764 1344614.1186858146 47594001.12765545 10554672.533025531 57544017.02886375 40365229.62740499 36028111.399529584 44681792.257786795 108103897.41472076 27265669.392138746 49211938.34598288 42248051.77469138 34558515.69192613 35057794.23109859 31997968.465118166 84604454.96589798 67677462.88593672 47995630.06304467 57746456.338301696 65329463.84576326 49392759.28316769 29318641.996535245 63946072.33573529 4505193.419560834 12765592.562719788 5858976.185544852 98363924.72904943 51640108.75624568 49620006.81758144 27078094.28022181 9790292.877403527 5414963.0900125485 44925794.375015415 51132602.73182615 79049205.25965297 56560600.79149723 34894029.76703365 31469044.45579266 46139631.041747995 45297078.04438828 34712270.63035815 39191199.61361753 4478523.657013044 42517555.357393004 92979097.54973903 19423945.07442869 54364570.10525594 63696286.33354549 16005443.86244382 52368743.023418725 4426977.329189578 48988912.496905416 20665159.944038946 53008881.77915879 69481563.21563266 61156538.99235404 27123144.530130453 15210243.905571392 43688573.403040215 20843937.264499385 16083788.39436887 57305794.656209745 39316175.248818174 24727882.103832085 12214468.366990853 49484246.27152046 44857511.0270726 36899385.47804835 54317603.26094752 49228545.846713014 33136388.207862925 54247294.59264258 11596761.585938869 42566057.7648087 50504102.871964395 56755426.247424 46315775.92715085 39771841.34008557 49048055.36688137 50390306.81517261 57206339.621817276 40214661.62039281 16824006.48119946 40036719.97076332 48462941.41229078 45925539.899218775 46246574.37341526 38275985.195982255 50998509.051593 50617606.155051984 42290432.3813102 6841207.351306119 36701921.31220692 57913700.74979271 99357232.7354588 49854518.10106508 67516040.08388747 53023642.59769286 53339112.90758151 11860317.930650765 11827302.38289931 55917723.54633178 12760167.776472755 9537305.572827522 31133403.18752765 45428263.297645174 14261925.987662628 109470811.27042429 54614542.39798415 48467580.872658454 78031082.37181737 50633225.086165436 26612943.23783265 32169743.53609442 19561138.79562035 38655630.0209271 52958188.82867138 2107707.4896281264 46594960.46790541 47877947.86594769 6380200.5112131415 41179132.86127456 59602857.7466175 57434566.227001734 33476792.58950062 31161241.76263381 111821626.673965 10742800.08053118 50442390.69335257 5984915.405027223 43492462.616011485 19850139.798890285 10770697.101564279 55507433.310818635 54421183.03168919 53000984.60359705 52299063.8709448 50411964.84418443 6119016.182839303 57233547.8682752 15786539.783336617 112105800.23526847 49840969.67713179 37059737.27125525 49740575.16157097 52522834.10180206 80905354.91576205 33267436.477359403 3886406.3234264283 168678215.68288884 31924618.536635585 45041209.760738276 48065648.010636955 40236510.645554855 45888015.78261634 22756830.14748076 25516098.59382357 41713603.87592291 15654233.670065114 50021199.87597745 43247460.025610484 57533946.523818575 32080110.367925376 2647902.087524701 47204176.15224821 12131179.722570255 34870487.037214115 25535788.079047248 98555804.88881019 50037000.00926701 51231294.3802016 55971670.72542146 54661813.06550829 48894984.900862105 6432610.667963929 39460044.69831104 79811647.73989862 23817147.003672007 17180834.153052103 17575787.66827213 15218791.844840728 44854100.98098291 50634988.69331399 17242292.920705497 4466706.1942431005 8176055.7419125335 52271747.28686181 1715684.5842677841 38514298.01322962 9226003.577237505 40458924.59312115 49248432.97466971 8194493.902342806 51038475.54650126 38470095.957203455 40646891.7292414 26641875.913524423 48496047.52964273 9335941.803396577 55279428.05416918 58534572.74957941 55015337.70974147 26539716.084029134 62670479.268979184 51688938.95009685 40628430.96329092 48641800.73686611 34295241.287705265 18333011.512584213 5887276.5119569665 17800203.921766818 54354337.04351793 47763926.798329554 5653185.215733165 57640863.02482615 34507744.63110371 22651974.314436097 18628455.24998349 47937733.91761992 82098627.10856856 37627735.51537271 77164421.29389147 61783594.41416292 12014649.796004234 60157460.21979206 50271649.33650549 55375931.71253325 16562908.112917522 38911710.92468925 31394405.53253279 62817837.3303407 49886134.26922898 56306789.11071973 73011992.92428775 52054274.1086675 49738520.01200036 54633575.50116839 53015323.44858514 48955849.267300166 20794711.820170313 46416750.521541886 53586468.31275455 8844502.642640777 734643.9923367192 51192354.82254696 50505224.382679455 65814990.865533344 19356833.249827974 58618533.92226172 39283522.475575686 5841238.491949514 17138271.229251914 52924414.87255585 35727796.04418063 3955059.4694347605 32224638.322366826 56145420.01235948 40580717.07232573 53799754.26834844 49620944.10121427 45164963.58826601 45329364.70143624 60861109.5406944 33490697.75830197 51224059.154614426 51078612.62827572 47070791.06337452 41604182.5219684 6608490.007726002 51875835.332371876 68881127.17684257 50877899.32850422 55298489.63310835 62011017.209905885 54575329.28745679 55298256.15395798 16458560.96697158 25352655.407226156 53396436.81260976 49502531.50052488 55291941.90492292 56012460.87909759 35381495.80737677 31079053.420602046 35894213.395825915 50118386.48496651 55198188.6526082 107462618.82658087 51229350.339165226 14375723.750257764 48853625.39685911 14037949.344789423 9397983.338283507 50725975.32014491 6162841.416493507 48850084.167286634 42520455.71418332 27598275.92178615 54327364.40252162 17790293.672447514 34349738.35436282 47017573.647619046 49205395.37719392 18489931.935966577 28839448.60246336 52552888.75714307 11759255.556414552 20292424.363209326 46176556.960847706 50290762.36019419 47701072.79659146 7586390.343598275 7765726.968572256 59431117.77231012 49006014.36425713 46801851.629188254 28737931.60075008 27355636.549883425 31435205.698203243 12461573.720007518 18179337.056200974 50191335.125862256 69199809.48836467 43306690.207866274 74199061.01962437 16127467.492344072 9802531.770157026 49231706.29507892 47943471.87135833 40408149.1325249 46753971.26941487 36873584.99295871 46704642.525128625 3810311.329598171 48990857.929242454 47759830.61713906 27314844.058237076 57907463.91904594 4233277.755040336 32372640.888667557 50227158.022284634 51012095.34171883 82879015.01448324 18150881.409391936 55173738.83485149 28373428.609723587 38401476.14625787 70752539.9862971 22455255.933451053 35720719.5899917 22912125.184263133 11279981.6321682 19600488.021473188 7514688.793690165 46651237.93924679 50653346.215599656 48456106.35486068 49732069.37932827 51180730.61218718 21512463.16945026 48986352.20256883 63673151.39283662 27728242.802826006 87348192.8445069 31013387.086283345 31207620.069201756 51151957.65588845 46322988.51224782 47837703.198837765 48127341.27960795 31203413.070823133 50750579.75535945 54908819.52855803 14849449.383245422 44721298.31452274 51226501.89310821 45732447.78164727 45564708.97571974 25686707.688470095 53054884.144177176 52263751.376248345 77576690.84081917 53848745.72508861 30629339.756804273 49351759.55822483 58568136.05826574 61660064.14303478 37443469.20074321 111573304.13451816 43843717.12815672 52401271.56649896 44876524.29580396 35995075.037506625 61024295.95886168 30443873.109489296 48691392.07847409 20589693.741021264 6139879.851318262 55664058.70777971 29454552.000236608 28750456.55647965 51533132.11362485 71258946.562789 49159515.13319172 16729936.677966684 39602930.501135856 46145667.2855527 53286038.03247161 36683428.01744954 48528426.684799574 4668836.4697682485 51886651.638448074 13050373.218193598 25882797.786123447 32061871.98566646 49617003.63780726 36348238.55154701 45832960.72255547 23223138.52393868 37471403.649313 64076546.15683846 54389399.47973479 12368683.47948015 64069718.37319606 5176058.467312543 71811178.57802518 65634358.96688004 21167580.98235244 58342728.94451583 33856714.1565717 24320483.675348513 12257847.305464499 33664540.64142532 51290128.93960134 36104860.18614021 56295698.422915235 52030449.75062907 24596533.4016951 46710730.71415546 20441627.97127545 48634996.0752222 49481449.563596904 16744673.266931921 5783617.398011371 71895499.35281974 39673382.33587686 45124712.73442083 27607115.374