# vtk DataFile Version 2.0
Really cool data
ASCII
DATASET POLYDATA
POINTS 2232 float
0.065625 0.14 0
0.099375 0.14 0
0.105 0.12 0
0.099375 0.1 0
0.065625 0.1 0
0.08 0.085 0
0.1 0.085 0
0.12 0.105 0
0.1849999999999999 0.10703125 0
0.28 0.11 0
0.295 0.095 0
0.315 0.095 0
0.33 0.11 0
0.33 0.13 0
0.315 0.145 0
0.295 0.145 0
0.28 0.13 0
0.1849999999999999 0.13296875 0
0.12 0.135 0
0.1 0.155 0
0.08 0.155 0
0.32 0.12 0
0.305 0.135 0
0.29 0.12 0
0.305 0.105 0
0.06773437500881972 0.14 0
0.06984375000205406 0.14 0
0.07195312499393314 0.14 0
0.07406250000004236 0.14 0
0.07617187500005296 0.14 0
0.07828124999599778 0.14 0
0.08039062499566955 0.14 0
0.08250000000584456 0.14 0
0.08460937498620397 0.14 0
0.08671874998350404 0.14 0
0.0888281249648799 0.14 0
0.09093749994625577 0.14 0
0.09304687494626636 0.14 0
0.09515624995949065 0.14 0
0.09726562497881361 0.14 0
0.09993750000645325 0.1379999999770552 0
0.1005000000119831 0.1359999999573933 0
0.1010625000196837 0.1339999999300135 0
0.1016250000145517 0.1319999999482605 0
0.1021875000213853 0.1299999999239636 0
0.10275000001583 0.1279999999437157 0
0.1033125000205607 0.1259999999268953 0
0.1038750000192149 0.1239999999316805 0
0.104437500006432 0.1219999999771307 0
0.1044374999951352 0.1179999999827028 0
0.1038749999863589 0.1159999999514984 0
0.1033124999747795 0.1139999999103271 0
0.1027499999727838 0.1119999999032313 0
0.1021874999709059 0.1099999998965543 0
0.101624999972217 0.1079999999012159 0
0.1010624999680368 0.105999999886353 0
0.1004999999776939 0.1039999999206894 0
0.09993749998824233 0.1019999999581949 0
0.09726562499248259 0.1 0
0.09515624997412314 0.09999999999999998 0
0.09304687496321759 0.1 0
0.09093749996112119 0.1 0
0.08882812493598546 0.09999999999999999 0
0.08671874992372468 0.1 0
0.0846093749223059 0.1 0
0.08249999991478847 0.09999999999999999 0
0.0803906249286163 0.09999999999999999 0
0.07828124993871717 0.1 0
0.07617187493933128 0.09999999999999999 0
0.07406249993859013 0.1 0
0.0719531249466581 0.1 0
0.06984374996285761 0.1 0
0.06773437498922152 0.1 0
0.06706250001289711 0.09849999998654217 0
0.0685000000133428 0.09699999998607708 0
0.06993750002783088 0.09549999997095908 0
0.07137500002361508 0.0939999999753582 0
0.07281250001751066 0.092499999981728 0
0.0742500000171228 0.09099999998213275 0
0.07568750001356 0.08949999998585043 0
0.07712500000675039 0.08799999999295613 0
0.07856250000445138 0.08649999999535513 0
0.08200000000315096 0.085 0
0.08400000000745389 0.085 0
0.08599999998316096 0.085 0
0.08799999996401804 0.085 0
0.08999999995273554 0.08499999999999999 0
0.09199999995121087 0.08499999999999999 0
0.09399999993491398 0.08499999999999999 0
0.09599999993196628 0.08499999999999999 0
0.09799999995619146 0.08500000000000002 0
0.1015384615440715 0.08653846154407151 0
0.1030769230707984 0.08807692307079837 0
0.1046153846014542 0.08961538460145417 0
0.1061538461355046 0.09115384613550463 0
0.1076923076739466 0.09269230767394662 0
0.1092307692141739 0.09423076921417389 0
0.1107692307468821 0.09576923074688211 0
0.1123076922736742 0.09730769227367417 0
0.1138461537886207 0.09884615378862076 0
0.1153846153245868 0.1003846153245868 0
0.1169230768683846 0.1019230768683846 0
0.1184615384317815 0.1034615384317815 0
0.1221666666682225 0.1050677083333819 0
0.1243333333369366 0.1051354166667793 0
0.1265000000040562 0.1052031250001268 0
0.1286666666814812 0.1052708333337963 0
0.1308333333140446 0.1053385416660639 0
0.1329999999726141 0.1054062499991442 0
0.1351666666401568 0.1054739583325049 0
0.1373333332945467 0.1055416666654546 0
0.1394999999698329 0.1056093749990573 0
0.1416666666405056 0.1056770833325158 0
0.143833333281017 0.1057447916650318 0
0.1459999999598918 0.1058124999987466 0
0.1481666666337889 0.1058802083323059 0
0.1503333333216364 0.1059479166663012 0
0.1524999999927106 0.1060156249997722 0
0.1546666666555291 0.1060833333329853 0
0.1568333333214746 0.1061510416662961 0
0.158999999967339 0.1062187499989793 0
0.1611666666313629 0.1062864583322301 0
0.163333333278774 0.1063541666649617 0
0.1654999999187791 0.1064218749974618 0
0.1676666665876264 0.1064895833308633 0
0.1698333332481752 0.1065572916640055 0
0.1719999999019854 0.106624999996937 0
0.1741666665715005 0.1066927083303594 0
0.1763333332500076 0.1067604166640628 0
0.1784999999387337 0.1068281249980854 0
0.1806666666271161 0.1068958333320974 0
0.1828333333127391 0.1069635416660231 0
0.1871590908930736 0.1070987215904086 0
0.1893181818021256 0.1071661931813164 0
0.191477272700166 0.1072336647718802 0
0.1936363636182067 0.107301136363069 0
0.1957954545312932 0.1073686079541029 0
0.1979545454459874 0.1074360795451871 0
0.2001136363587739 0.1075035511362117 0
0.2022727272621838 0.1075710227269433 0
0.2044318181621305 0.1076384943175666 0
0.2065909090717572 0.1077059659084924 0
0.208749999958918 0.1077734374987162 0
0.2109090908703832 0.1078409090896995 0
0.213068181776376 0.1079083806805118 0
0.215227272685777 0.1079758522714305 0
0.2173863635958269 0.1080433238623696 0
0.2195454545073772 0.1081107954533555 0
0.2217045454294248 0.1081782670446695 0
0.223863636339363 0.1082457386356051 0
0.2260227272489988 0.1083132102265312 0
0.228181818160514 0.1083806818175161 0
0.2303409090875042 0.1084481534089845 0
0.2325000000052597 0.1085156250001644 0
0.234659090902737 0.1085830965907105 0
0.236818181813508 0.1086505681816721 0
0.2389772727244384 0.1087180397726387 0
0.2411363636346515 0.1087855113635829 0
0.2432954545371028 0.1088529829542845 0
0.2454545454246329 0.1089204545445198 0
0.2476136363213812 0.1089879261350432 0
0.2497727272138938 0.1090553977254342 0
0.2519318181089134 0.1091228693159036 0
0.2540909089904152 0.1091903409059505 0
0.2562499998901056 0.1092578124965658 0
0.2584090908050114 0.1093252840876566 0
0.2605681817047688 0.109392755678274 0
0.2627272726135497 0.1094602272691734 0
0.2648863635312589 0.1095276988603518 0
0.2670454544447627 0.1095951704513988 0
0.26920454534516 0.1096626420420363 0
0.271363636270729 0.1097301136334603 0
0.2735227272203026 0.1097975852256345 0
0.2756818181551134 0.1098650568173473 0
0.2778409090647967 0.1099325284082749 0
0.2815000000053745 0.1084999999946256 0
0.2829999999854226 0.1070000000145774 0
0.2844999999510034 0.1055000000489966 0
0.2859999999473654 0.1040000000526346 0
0.2874999999299716 0.1025000000700284 0
0.2889999999075633 0.1010000000924367 0
0.2904999998900509 0.09950000010994908 0
0.2919999999015493 0.09800000009845061 0
0.2934999999339102 0.09650000006608975 0
0.2969999999888869 0.09499999999999999 0
0.2989999999509398 0.09499999999999999 0
0.3009999998509222 0.095 0
0.3029999998570209 0.095 0
0.304999999834998 0.095 0
0.3069999997763834 0.095 0
0.3089999997820753 0.09499999999999999 0
0.3109999997982706 0.095 0
0.3129999998537684 0.09500000000000001 0
0.3164999999896195 0.0964999999896196 0
0.3179999999876418 0.0979999999876418 0
0.3194999999544932 0.09949999995449318 0
0.3209999999280954 0.1009999999280954 0
0.3224999999086687 0.1024999999086687 0
0.3239999999074617 0.1039999999074617 0
0.3254999998556276 0.1054999998556275 0
0.3269999998556995 0.1069999998556995 0
0.3284999999182233 0.1084999999182232 0
0.33 0.1120000000092327 0
0.33 0.114000000011418 0
0.33 0.116000000010283 0
0.3300000000000001 0.1180000000050822 0
0.33 0.1200000000058445 0
0.33 0.1219999999961714 0
0.3300000000000001 0.1239999999598676 0
0.33 0.1259999999371502 0
0.33 0.1279999999316105 0
0.3285000000000424 0.1314999999999577 0
0.3269999999852616 0.1330000000147384 0
0.3255000000065136 0.1344999999934863 0
0.3239999999714211 0.1360000000285789 0
0.3224999999562507 0.1375000000437493 0
0.320999999981433 0.139000000018567 0
0.3194999999689393 0.1405000000310607 0
0.3179999999718277 0.1420000000281723 0
0.316499999966449 0.143500000033551 0
0.3130000000024226 0.145 0
0.3109999999822801 0.145 0
0.3089999999004058 0.145 0
0.3069999998641698 0.145 0
0.304999999832711 0.145 0
0.3029999998062666 0.145 0
0.3009999997901222 0.145 0
0.2989999998023702 0.145 0
0.2969999999079275 0.145 0
0.2935000000021515 0.1435000000021515 0
0.2919999999638825 0.1419999999638825 0
0.2904999999183969 0.1404999999183969 0
0.288999999888937 0.138999999888937 0
0.287499999892681 0.1374999998926809 0
0.2859999999005244 0.1359999999005244 0
0.2844999998693198 0.1344999998693198 0
0.2829999998882086 0.1329999998882086 0
0.2814999999457052 0.1314999999457052 0
0.2778409090667482 0.1300674715916641 0
0.2756818181547314 0.1301349431826646 0
0.2735227272275098 0.1302024147741403 0
0.2713636363001987 0.1302698863656188 0
0.2692045453720377 0.1303373579571238 0
0.2670454544500072 0.1304048295484373 0
0.2648863635170122 0.1304723011400934 0
0.2627272725983786 0.1305397727313007 0
0.2605681816881735 0.1306072443222446 0
0.2584090907635002 0.1306747159136406 0
0.2562499998214266 0.1307421875055804 0
0.2540909088840544 0.1308096590973733 0
0.2519318179684614 0.1308771306884856 0
0.2497727270782118 0.1309446022788059 0
0.2476136361661084 0.1310120738698091 0
0.2454545452542267 0.1310795454608054 0
0.2432954543341854 0.1311470170520567 0
0.2411363634195992 0.1312144886431375 0
0.2389772724997386 0.1312819602343832 0
0.2368181815834744 0.1313494318255164 0
0.2346590906712883 0.1314169034165223 0
0.2324999997502527 0.1314843750078046 0
0.2303409088459517 0.131551846598564 0
0.2281818179438135 0.1316193181892558 0
0.2260227270493727 0.1316867897797071 0
0.2238636361452709 0.1317542613704603 0
0.2217045452432536 0.1318217329611483 0
0.2195454543486293 0.1318892045516053 0
0.2173863634319631 0.1319566761427511 0
0.2152272725238697 0.1320241477336291 0
0.2130681816059222 0.1320916193248149 0
0.2109090906977595 0.132159090915695 0
0.208749999784733 0.1322265625067271 0
0.2065909088903817 0.1322940340971756 0
0.2044318180176934 0.1323615056869471 0
0.2022727271223141 0.1324289772774277 0
0.2001136362212114 0.1324964488680871 0
0.1979545453303449 0.1325639204584267 0
0.1957954544424632 0.132631392048673 0
0.1936363635538681 0.1326988636389416 0
0.1914772726499719 0.1327663352296884 0
[...]
CELL_DATA 4084
SCALARS Von_Mises float 1
LOOKUP_TABLE default
87235843.64274627 3417546.4551862907 36662729.59189488 222762667.45754328 263572538.45992625 147558386.12245178 147059541.52178222 87831244.80947363 28353839.70582476 210353603.4805643 213905895.52812546 42305211.599370494 470961992.9639885 471422098.6071482 313986397.2961857 314019846.2197884 44182181.2532714 49589928.4550405 320713385.6079114 195374907.77207926 196481576.19563767 393935103.5477255 399031537.3831981 214625684.2541408 214731918.48289153 251630342.3749235 253148450.64245078 79589176.78432903 296915.8325150128 439046595.9380845 371128069.026226 344827274.15462285 373810343.9074464 325883677.6573323 166766.2126247754 68492942.60779029 68492402.71163248 531252560.0159275 531668432.257162 65473592.38553105 84555306.50252508 144512110.9111788 11694831.086898377 413333798.86758804 102733098.92596959 102734904.65427554 358215465.3530679 358223442.195968 9936469.907351524 38574.82502650863 119539.95564620668 267223236.30950677 305102136.21812046 305716082.1069237 418854359.04995394 418903293.3758514 3157347.4026566264 80622206.39602154 164665179.6581204 164676769.70908493 4146866.0464638695 207867287.91013473 13538486.220141118 21274861.548756175 121590.59819640903 24039309.278546497 236399807.80017704 269568567.11282945 269962158.84860814 103978.35718710728 199124.78311490247 9826550.663075728 45465432.57528106 3619387.666750291 187277336.70367697 186905107.19968045 52670496.74116664 52668567.075315215 139381834.79768306 199175081.64704046 199184767.5012916 3660053.0947164437 146611444.29746756 146580565.94831744 187235873.64737734 182745245.60167804 144027083.3622317 139510689.80178106 39567451.234629944 170375757.80335757 165128046.32320493 152961047.7551964 146015285.0339307 5459440.465913153 10531917.507175442 5536111.818415863 146934155.96442682 80441430.38458991 131119075.73606375 129912838.31342916 12253488.558718776 294387860.07825893 294788283.99047005 4049885.8345601726 15974181.393228104 6084544.399389268 6084137.065231908 172442834.78715336 42302786.089468636 284655.23084055574 1599899.0770959689 119330494.70818767 68788479.75394751 198736126.95809686 9140854.280883854 178340250.52391315 12850668.033398056 204582686.96367761 199437439.38664168 6704816.061956748 6704267.328056462 45857106.44997117 75165092.16857457 94886524.41194947 101994831.93068507 112204877.79132964 107602442.4984871 98100849.18398553 90773035.93756896 120246390.83544686 7411056.85833355 7411685.094382992 210001019.75792786 6845020.532639322 13095824.004361972 17815225.90612652 31116.846908109812 5445806.41911942 8719165.872271251 8719778.470730424 245422.44790195167 183580434.9108661 183787063.93044436 114762.41230538713 35091338.20068418 22784730.28410135 249572745.7054379 33514198.109510727 18958617.801057294 5057055.715237678 6762178.097119722 201702346.3933918 255754852.59234548 405748997.3386321 444472359.2171209 16821083.68739594 22758062.24926267 72087904.14124002 568743859.1642479 569305302.246668 171431131.95414746 174814218.66179904 58151746.49973699 68306299.17903982 300925461.95463926 299655112.95957005 388495.4125688231 420684.5026036245 102794504.00075841 1775580.1861027875 1774143.2858535128 210794574.05632004 205957719.4485422 78125278.42956999 120853658.3275697 68198091.81719117 496510392.7126264 495167309.14932525 152316947.88920203 155102037.53808156 533791640.3403161 534777003.5592573 24551698.679597102 24551929.704267062 18973242.751190927 18973494.05421733 228742813.22531387 19280479.05837556 19289375.626245677 64300884.41393951 517129083.7811354 516564328.2636045 269394676.7155467 270478869.69013417 150994117.22001344 298189246.2007392 122925548.87415849 397771.3609560376 30683543.37101281 506378.58960578445 25862885.685005076 229090465.44102645 226574352.3887666 258837884.93205732 259010086.48267588 17390544.626289822 77604173.22985098 10021167.369164428 118692523.71402279 118646870.91229881 234174923.465484 265087.97707767034 12703336.35486723 188238615.32331318 9930972.672742827 263699389.51249185 218025029.20930588 217920992.2266768 314761285.19121057 189214638.45181492 183803710.55639687 53890.09348955301 57814.66253731584 49284907.63079976 697416.6760587733 49594083.70630869 49591743.84921892 156160571.72230664 600865956.5850682 601212737.299537 553047.5370242487 245728098.630881 246777852.01848423 328505810.1949051 157184734.20796415 61777733.25247055 5807526.461922267 5808411.630842809 232646930.03023043 232525300.159013 179208725.9465146 372474495.992919 372735942.7926931 220778696.06390002 320729962.51003397 181106.21802242828 113114.51746091351 316557988.30150896 316180935.3962419 189239541.87482265 423324522.7795239 417292522.65706354 429393057.0217433 518155480.8981363 429361009.91483253 518332993.77768004 106892315.64778168 106881380.22964178 55341332.913371585 55337730.066982426 213645786.05518565 213522686.17902726 171332224.89891118 25893388.5893748 11108489.318852477 11107433.098660262 306622847.15201664 304950931.53603023 16668239.670732338 16678013.21494537 381228419.8320901 381752449.049717 12419881.68773361 13822428.0021914 195901377.53031287 12912566.947962899 38138209.45641088 99994.66813063642 52033230.68098502 13587787.774909064 87758.88761754526 8814835.12478638 15592794.807103356 197699456.1630866 10002328.098750582 145386.3934738451 179015.48813567092 327598.6544393041 3876723.3716965243 278849410.48346215 279028066.559899 4240239.757406314 136001365.63410753 52163806.780396834 148125582.93238452 244369861.85285816 240771518.48764822 737670.0655993557 740950.0119891712 511806917.9230506 510245430.2465946 9970088.136052454 9969087.937866107 68013161.5914765 673009332.4679914 673443290.3372201 427441698.8770845 425981260.06981975 10514333.903298829 533142496.22970045 532965414.5225682 138476144.95423117 2361985.129487172 2362985.244248488 30488381.634331502 271979779.47639495 269382996.7231908 728159.0370833194 6498361.272467167 6499336.252333584 22418923.238627117 289906761.46440285 286728476.95766294 153913273.9734439 26063421.717823297 66512172.142982416 386925.2691506901 286448.4135430011 254090.6742158514 56915.34404476734 5162257.5486399 34906127.06454982 159686447.05117744 133677579.45732889 89087135.23174782 22061722.552576635 610187495.6733675 609910253.587127 23369751.83855713 55335.49041492769 419397207.14743763 420009353.5910933 425440.2607314089 141511029.29506353 136336064.748709 232247260.70745575 228340091.98645636 120671503.31484847 260545151.50451592 261023293.06701842 87912334.36636777 87909565.21591224 63195784.95475164 184808392.3598427 16111.942961092993 54235968.76294636 56595675.945177436 75740125.92939237 242616853.0102131 242724566.83344954 6638677.9973476045 207070594.40964448 484454704.87006444 484411625.6409485 5019179.893680628 38606521.21813519 75800308.53837995 80109684.01175182 175915696.56789657 9807647.299130356 242554003.61223888 241053623.71885595 26678053.48171232 10684013.197491385 903746.8820396734 262869542.6995989 395730016.75478476 396382988.6205111 83137487.64079402 71227206.2840701 56871317.15219961 39914261.633581 73588564.77930826 213871971.24549493 423277806.139262 417128387.4179195 87954365.25052388 47125.63625307222 186906.29474603603 570329.3977799714 12757036.021584148 47273712.80313659 532386717.9324011 530551235.56353354 111752.21695630855 4858434.617598247 1140002.8942138755 26341951.18260476 26345631.278499056 37049202.12965424 14002814.559082657 72440246.44974512 15409321.565952228 42058341.93188775 61476154.37581746 5005461.004180263 8158062.144443052 29439404.5154907 28686.198904834055 20042.787787604524 5682094.65944177 93597457.23448792 43493316.815372586 46444351.47327534 77716629.60342252 171186894.22580716 13217780.371577848 13219070.52201949 114714862.80743338 109817669.9355876 193448.1482141192 196224620.22543004 139609708.1529676 8248801.260630895 321982956.84121954 250074493.14400142 249194060.26928335 13292258.127690325 13293516.667383146 166883140.64326856 162807055.94710153 170392817.5352132 134442.27147797143 334042865.0628133 396055118.89584756 66106066.365171626 319681047.72530067 316352917.8720044 34304293.45562432 39749563.12885709 266149.25621797855 45555086.51909023 101914767.60247287 92959338.29885344 265612570.6969231 266672832.66879767 123936123.75814761 9169433.71530303 2615455.275104103 9053770.519613385 221948743.15182725 279941322.31637424 55526.62227817127 72186.4128342732 169153246.45248878 58425062.88193298 58426475.12081592 253281776.78705755 245431753.96981123 140006.40921282358 190950747.8334652 190884045.98986986 12207578.289592873 214710702.22381267 214426211.1203813 176820023.08925152 201691237.15319383 378430384.0323626 378648604.28509337 277054539.57932806 80378776.90774687 6404704.129853065 204096.92631142208 78013.12912413651 252371.53899660037 45973.27254410411 51077.69052773597 540038.9187059456 18799.429463179356 16498.28839261092 33673.725853544405 2967568.4978558007 196853810.61773315 190238956.23521653 134099406.92968073 8135955.600570058 8138419.495064149 94331.6131532103 625997.2879878848 143576280.15728283 8149476.750510884 425175157.99132204 429757548.0391069 42125634.88007683 139839302.32130164 450989824.1628804 451287494.32346946 452408216.0152434 452519214.8102895 9603387.983427774 40454203.62479389 45733427.55608624 898053.3143816855 131837871.51548938 74202.07783274431 157449754.45811337 157079614.19990134 168105610.80587533 169813898.04973817 94748010.99701211 35466256.093010165 35481273.278215826 307269681.9104779 63575127.59022435 42913447.26136577 143647599.76859775 8371140.391261649 247584753.71634465 247860662.18353817 5649359.773909198 40595805.96451206 40595602.95339689 129425.75599849546 98022708.10977247 94866753.88670893 117822.24889769549 1931754.405642607 303331511.55202997 298860772.3940757 148365484.382703 67919690.29319291 64568639.35001964 461471344.11791325 381858535.35450137 461022104.3987616 389763932.3963417 117085276.43308811 40906194.014447875 6656958.2164717745 17941265.009370238 127184151.4835419 3701421.0755897597 3702400.70350634 3774543.9636474983 7927600.137133506 213669.76921830335 147478.155106718 173403.75783288517 213790938.10702807 210517622.11257908 32098024.661305662 28772734.539428953 10447603.924402347 13244214.736493064 203728113.92805657 203735618.1356303 464242544.5484066 471939631.96063143 9886252.555387374 124463.09730945031 195810133.4788203 140386908.54066563 5321112.359683378 123005.54942622296 54976338.706223786 126348228.18425322 126344052.35429558 54155782.769845545 210567586.33299744 327450037.9168715 193285924.63539165 163972301.125031 168484128.95445287 165127.02449955413 147581.79535058147 1942.9721803202249 264822385.1381526 260448250.30480427 1086398.0229739477 44324.945076867814 50440.56912172459 78631.93539463266 137430115.92318612 172615667.98655188 178074191.54633144 102068883.15193008 3526360.565804176 194767545.4217913 198183452.93800557 257111837.06061977 4896413.912874897 5000604.820359357 148542571.59744048 157330280.3953031 435707.03199980065 223621697.94435474 223766852.42181188 67663.7237400214 75684.84090810678 3447416.275928296 3448285.677709433 80722964.11590232 228683926.19845042 4084143.029901062 20929666.104239423 140583518.44559336 1398531.8224129179 192941076.01302272 137141792.09716392 203787282.44088733 203658700.7958088 50027054.405775525 51449607.12087827 56128378.7223047 56486963.87867165 127453177.7580551 375826515.00770754 318381999.740023 315013771.07967514 52751619.660664365 429525080.75072217 427333631.6663416 113107355.29878724 15911117.384395374 15909619.022648687 254323266.37521034 180121.97732627342 11764374.003121113 11763208.629250392 186931.3872387443 7760656.67797534 177903579.42867893 177947997.84004155 35148358.70685039 361093292.86280507 428434030.3493911 33781776.34405324 164802.77642659514 19505199.141994804 34075372.25452672 77772286.72559848 8121685.149389136 5643178.838336907 295849.49221563444 13926272.377694678 118374176.90469204 23867093.578787472 39849042.52693497 248361799.11965007 243656739.16613862 2965787.909311321 4676726.894415456 22397137.497933406 22394932.878997255 59482333.842794046 264035374.12599775 206017671.51699868 50008478.022362135 41465514.35601395 30480927.982047375 24038483.461961426 24041543.065989554 258602495.44136965 254247466.74856582 71430354.62785114 64898392.58104632 164290.472568791 46550.29091731105 56276.22155264035 414464368.12471324 411987171.0086333 261431257.75854713 107140216.67882152 233425548.16779983 242997170.747057 130293499.85156107 121309.76392600845 33876.234756287544 50330.10469397811 147578802.31995967 602059.8780658458 12776691.94847424 285713366.24618936 280576042.82466036 186874632.41216046 15369.89522401838 25793.084390561427 37443.33567440445 154530.55151524753 37434.863314066526 118512380.58442262 114962555.60690962 506124196.2157622 505112449.10345405 196120.08395844567 147767.4368516333 139738.80355770502 4333862.595668348 3499783.1988665266 251262035.9711684 4628433.22803813 5380730.500584056 220161481.55766568 220271401.8641156 189095532.6449405 144425.65097010613 13060191.395725185 13059003.299833056 22626531.2979637 22630784.39707228 61121363.58619239 121957956.52997458 120973438.56166372 275450588.07991326 210302249.37192434 205555764.40834936 259709292.31736076 255150359.56895837 63290461.41404743 59574119.97747775 51470981.169413246 225950679.983039 222638798.75420952 7398161.328359802 239339.62525089332 139601259.01518473 144135388.270156 8951769.947092805 4062709.895098004 8253775.90408783 5773060.25144033 9929927.945454026 15425378.745199036 26802852.4936309 26805326.605479468 3881634.3315444244 178074532.03745475 38790262.69637486 142828957.72458056 11092940.13254246 11092166.866257684 184894063.9993667 184824272.8318464 80629533.83993831 121766923.80404575 130360250.23403652 28433.469134258212 25677.009662014305 15709.455419565646 33017.60266959464 18832.219278954322 30440.994606502445 19813.389417040493 34661.86442788611 123317732.69664302 156716.25849888957 8061327.618536176 8062027.32187036 83412014.27390702 87929262.45248468 555304696.2171559 555297046.3965381 42824532.544511035 304246383.4317946 35139020.62773015 9097013.851285743 6064263.998649491 66325030.962037764 65809148.125775345 48800327.567197576 72625874.9464608 344659664.92563146 345517301.9067756 16120512.374023374 119770092.52158552 376566154.11967844 1811994.801392409 143691921.25577676 140893645.5002106 42162687.91309085 18877334.972543914 18875803.683021206 22376250.885530245 12585093.297615796 18724301.12031198 17469126.656809866 23604864.366627675 41813149.40762856 118182718.16884221 113279278.33251786 211600.40074989764 208247127.0959423 16082364.998309148 104635095.13055514 9301862.230078388 9303017.718831034 76593780.19845992 81132475.82000653 35462987.42388674 5239013.403571997 6967283.556143411 6968065.390355836 41927293.177045606 52460533.88967894 327280591.28310347 7613586.440604627 7612804.355450936 764428948.4156901 769522849.7916675 11947785.212041177 11946603.592945497 15803522.77779765 15805121.238406619 197793534.53257775 193084993.86032176 420156405.045202 376870.74983004684 96621814.77068582 100773566.03663646 195380913.7989511 191029165.71880874 97721231.39015798 3704743.4207720426 46849784.71763699 139625474.87118715 16495155.39991074 207480409.79638544 68016973.21711232 198888926.50970817 30950058.746325187 30954486.625382867 2775831.0256860955 30561773.216374468 75436369.54996055 504524.1481167907 269023920.8090433 266100676.09725413 599655318.556508 599774722.3833027 24304488.795398768 22084959.453656394 22088781.009198952 3952874.226924782 6279436.7232479695 6282368.960194174 198214853.98963556 11329641.078932334 11330856.974178862 186252242.06525058 185679501.1636 217466845.21681207 221947688.29598367 145914.50041347797 2567849.810604474 254397019.461484 253455574.05299538 14289160.662841348 465019457.30197185 465466175.31924343 219662606.9057941 224557823.89905798 5705437.650664508 219517502.57575145 219520227.9052279 45842.63443178629 17259.853283105298 31778.019777034322 40926.24706071186 14402670.915490692 143802683.04583782 130534790.05084266 606138413.167412 609641807.4510893 205009125.8434046 39465878.356280655 39451849.346874274 262009723.33935887 178348.39578384356 136248.49286299763 129585.1264777218 159725372.91930303 155488658.64622688 3709018.3321353463 138712709.04694927 141533646.91773245 146212593.49727532 439617322.5924124 122116450.7784755 127784648.54191005 9378283.83052998 70229274.13987347 335903061.55307806 103445564.5897085 362217132.03438514 16303270.143594166 16304455.238805277 25533198.27544561 121585531.91764702 117031153.57451652 107176.36774392678 77266.20185032515 197705.842399845 152516.48925010223 482215030.5762538 481391903.4245911 140362.38178538016 95565560.7567269 99737141.66657303 180646.34183223813 298512649.438998 478848322.8138218 479177654.296509 97092082.75108944 91866564.20217353 302303399.50537556 31479779.951345254 161386269.5002892 465141266.94988334 462836332.20078343 16487590.77525347 16489166.461464103 198876.60628807076 204692040.38746297 68242650.67441006 4128180.4150369517 5311841.228207524 271057011.57830614 271280677.59376067 326798240.34541214 327104486.1360881 199828803.5639806 202052338.99322146 230980.30772914973 87318.49026971354 179352.02743965245 9213229.946598392 97327662.65474254 89838337.19479002 96660900.88814321 344251607.6660473 10762821.633411651 10763893.808374194 19595875.397684947 19204356.824354276 36313236.57109158 41690082.536755376 338622554.9120991 314573720.27979326 38595338.113703825 44703960.00444972 131395941.53656858 2239464.0308373673 2480942.5738468682 398274579.3088473 1177687.6600146461 82881.41265904633 3341642.4150184663 307884934.1457643 308163910.6763441 27113365.093651865 86458759.84106584 78374338.9488391 29306572.794305265 382123327.40084 192376.15143148587 239479.78670932117 151990.25070310346 184098.31203287013 17398591.90366249 36251766.997713864 64838902.7077538 41432440.00191174 79901165.99081796 355090985.13064617 355792928.3801999 303029968.3017999 303714263.168674 129262.11134391758 12160340.983043414 77190310.819368 66347240.9923372 106086.62048141206 29091307.23802051 255651916.2007724 307049514.2774369 303123403.0687838 16922253.27406426 16924021.389853593 657459.8633278318 183693.22658402578 10188242.620709948 16426632.039447246 13989183.737152632 19146668.231908664 165305.96737943593 141843.84533553635 42543.3370593582 40518.54092659426 29871.199325479647 21116.64998024659 11021551.860104203 11022647.402886456 343086962.5440279 340578897.4126972 431354.0777597358 29571652.53852412 30082224.446207594 34362516.95836043 35339172.90728422 122472143.2628493 118821820.0190357 93333894.72045456 87815522.55843465 230140247.58515584 169094240.4907036 28252156.899397556 28254863.654981498 587038091.571209 588686477.2945062 5884934.287025595 3816645.157201985 102373133.07148613 42166686.112184875 15044703.20260771 371055209.7037994 210311.1435615744 182298.89833175388 29209.29149754506 52014834.706396826 36591979.82179286 307610192.54471666 135738748.11694372 52866431.4103034 458696760.5326158 458677851.47721726 9993790.132690247 10851377.894304156 117229412.19035223 109727438.56010735 387021574.1074947 386998994.3541099 410611856.4313479 410606790.2691267 263779182.05448455 118585935.42788027 60503383.405757345 23989598.58673932 19490759.66973503 19492607.56694085 37541901.787118144 166966.4251296261 275937742.52948135 288586859.5545245 6175881.8058470525 6176673.296253951 80940598.75576775 12438493.619023092 12439584.398783747 152415.49149093984 54276018.51331985 120123879.46805243 117710182.91169503 10863318.639374776 10862267.064029027 21391818.415536515 106299413.31577215 36070917.93058909 14772898.991008172 409432995.8081291 409544207.1527214 12476346.98883064 13983531.169681178 17587772.806164566 4180152.5694941957 16590920.54224616 17292800.350441653 73159216.46020734 26972287.85733912 43317472.56549392 10968740.021895373 6970841.799297164 