# vtk DataFile Version 2.0
Really cool data
ASCII
DATASET POLYDATA
POINTS 1868 float
10.0 25.0 0
10.5 2.5 0
14.5 2.5 0
15.0 12.5 0
20.0 12.5 0
20.5 2.5 0
24.5 2.5 0
25.0 20.0 0
13.625 5.0 0
12.5 6.125 0
11.375 5.0 0
12.5 3.875 0
23.625 5.0 0
22.5 6.125 0
21.375 5.0 0
22.5 3.875 0
13.625 21.5 0
12.5 22.625 0
11.375 21.5 0
12.5 20.375 0
23.625 17.5 0
22.5 18.625 0
21.375 17.5 0
22.5 16.375 0
12.5 15.5 0
20.0 15.5 0
20.0 14.5 0
12.5 14.5 0
10.00806451614194 24.63709677361278 0
10.01612903231258 24.27419354593386 0
10.0241935484938 23.91129031777878 0
10.03225806461129 23.54838709249173 0
10.04032258071191 23.18548386796397 0
10.04838709682194 22.82258064301263 0
10.05645161296179 22.45967741671925 0
10.06451612913326 22.09677418900329 0
10.07258064533511 21.73387095991988 0
10.08064516149915 21.37096773253857 0
10.08870967759623 21.0080645081696 0
10.09677419375892 20.64516128084849 0
10.10483870990822 20.28225805413003 0
10.11290322607429 19.91935482665694 0
10.12096774224832 19.55645159882557 0
10.12903225841202 19.193548371459 0
10.13709677455406 18.83064514506724 0
10.14516129073117 18.46774191709723 0
10.15322580686834 18.10483869092457 0
10.16129032303272 17.74193546352748 0
10.1693548391806 17.37903223687297 0
10.17741935534539 17.01612900945749 0
10.18548387146244 16.65322578418995 0
10.19354838763403 16.2903225564684 0
10.20161290381374 15.92741932838155 0
10.20967741997008 15.56451610134622 0
10.21774193613836 15.20161287377394 0
10.22580645230157 14.83870964642906 0
10.23387096844209 14.47580642010597 0
10.24193548458432 14.11290319370539 0
10.25000000073421 13.74999996696068 0
10.25806451684794 13.38709674184244 0
10.26612903295814 13.02419351688371 0
10.27419354902925 12.66129029368375 0
10.28225806511086 12.29838707001138 0
10.29032258120948 11.93548384557348 0
10.29838709730668 11.57258062119947 0
10.30645161342799 11.20967739574034 0
10.31451612954823 10.8467741703298 0
10.32258064562724 10.48387094677422 0
10.33064516174957 10.12096772126913 0
10.33870967784367 9.758064497034947 0
10.34677419397089 9.395161271309828 0
10.35483871007663 9.032258046551387 0
10.36290322617298 8.669354822215917 0
10.37096774228375 8.306451597231394 0
10.37903225839794 7.943548372092563 0
10.38709677451733 7.580645146720181 0
10.39516129059989 7.217741923004883 0
10.40322580666075 6.854838700266257 0
10.41129032276591 6.491935475534158 0
10.41935483889413 6.129032249764203 0
10.42741935499985 5.766129025006942 0
10.43548387108066 5.403225801370201 0
10.44354838716179 5.040322577719254 0
10.45161290326106 4.677419353252181 0
10.45967741938996 4.314516127451607 0
10.46774193552708 3.951612901281566 0
10.47580645160294 3.588709677867938 0
10.4838709677258 3.225806452339046 0
10.49193548385171 2.862903226672901 0
10.86363636397148 2.5 0
11.22727272776948 2.5 0
11.59090908917042 2.5 0
11.95454545068175 2.5 0
12.31818181403819 2.5 0
12.68181817915301 2.5 0
13.04545454194173 2.5 0
13.4090908986116 2.5 0
13.77272726213363 2.499999999999999 0
14.13636363138024 2.5 0
14.51785714288412 2.857142857682448 0
14.53571428574426 3.214285714885328 0
14.55357142862196 3.571428572439232 0
14.57142857151165 3.928571430232919 0
14.58928571437537 4.285714287507488 0
14.60714285724751 4.642857144950152 0
14.62500000009455 5.000000001891001 0
14.642857143032 5.357142860640115 0
14.66071428594258 5.714285718851571 0
14.67857142887942 6.071428577588326 0
14.69642857180077 6.428571436015462 0
14.71428571474886 6.785714294977167 0
14.73214285764917 7.142857152983446 0
14.7500000004943 7.500000009885979 0
14.76785714328319 7.857142865663754 0
14.78571428612831 8.214285722566284 0
14.80357142896074 8.571428579214821 0
14.82142857173971 8.928571434794218 0
14.83928571444931 9.285714288986206 0
14.8571428572153 9.642857144306044 0
14.87500000002409 10.00000000048181 0
14.89285714286733 10.35714285734665 0
14.91071428569972 10.71428571399456 0
14.9285714285493 11.07142857098609 0
14.94642857139116 11.42857142782311 0
14.96428571424643 11.78571428492866 0
14.98214285713977 12.14285714279527 0
15.3571428591223 12.5 0
15.71428571719138 12.5 0
16.07142857423201 12.5 0
16.42857142974857 12.5 0
16.7857142846084 12.5 0
17.14285714112862 12.5 0
17.49999999772317 12.5 0
17.85714285297952 12.5 0
18.21428571083795 12.5 0
18.57142855939082 12.5 0
18.92857141386655 12.5 0
19.28571427430228 12.5 0
19.64285713574168 12.5 0
20.01785714292029 12.14285714159426 0
20.03571428577939 11.78571428441216 0
20.05357142862984 11.4285714274031 0
20.07142857152504 11.07142856949918 0
20.08928571434997 10.71428571300059 0
20.10714285726139 10.35714285477221 0
20.12500000019564 9.999999996087139 0
20.14285714320795 9.642857135840998 0
20.16071428614276 9.285714277144802 0
20.17857142904537 8.928571419092558 0
20.19642857186783 8.571428562643403 0
20.21428571479022 8.214285704195643 0
20.2321428577479 7.857142845042126 0
20.25000000069735 7.499999986052996 0
20.26785714347055 7.142857130588933 0
20.28571428619271 6.785714276145805 0
20.30357142900126 6.428571419974752 0
20.32142857178615 6.071428564277086 0
20.33928571464426 5.71428570711476 0
20.35714285745924 5.357142850815163 0
20.37500000029276 4.999999994144766 0
20.39285714311046 4.642857137790787 0
20.410714285854 4.285714282920003 0
20.428571428706 3.928571425880045 0
20.44642857148773 3.571428570245412 0
20.46428571431238 3.214285713752382 0
20.48214285711565 2.857142857687005 0
20.86363636516213 2.5 0
21.22727272581398 2.5 0
21.59090909243092 2.5 0
21.95454545450997 2.5 0
22.31818181891514 2.5 0
22.68181818017414 2.5 0
23.04545453949341 2.5 0
23.40909089990082 2.5 0
23.77272726283935 2.5 0
24.13636362860863 2.5 0
24.51041666667252 2.864583333538364 0
24.52083333335455 3.229166667409358 0
24.53125000003504 3.593750001226702 0
24.54166666672229 3.958333335280106 0
24.55208333340738 4.3229166692584 0
24.56250000009479 4.687500003317582 0
24.57291666676292 5.052083336702424 0
24.58333333342993 5.416666670047649 0
24.59375000011929 5.781250004175338 0
24.60416666678541 6.145833337489197 0
24.6145833334717 6.510416671509586 0
24.62500000015173 6.875000005310423 0
24.63541666684382 7.239583339533857 0
24.64583333354729 7.604166674155124 0
24.65625000022954 7.968750008033958 0
24.66666666691629 8.33333334207003 0
24.67708333359532 8.697916675836199 0
24.68750000028001 9.062500009800464 0
24.697916666944 9.427083343040039 0
24.70833333365369 9.79166667787921 0
24.71875000035885 10.1562500125599 0
24.72916666707987 10.52083334779526 0
24.73958333375135 10.88541668129731 0
24.75000000042991 11.25000001504697 0
24.7604166670681 11.61458334738357 0
24.77083333369809 11.97916667943294 0
24.78125000036938 12.34375001292839 0
24.79166666700398 12.70833334513953 0
24.80208333364604 13.0729166776115 0
24.81250000030942 13.43750001082962 0
24.822916666971 13.802083343985 0
24.83333333355412 14.16666667439433 0
24.84375000015083 14.53125000527908 0
24.85416666675838 14.8958333365431 0
24.86458333330886 15.2604166658101 0
24.87499999988007 15.62499999580261 0
24.88541666655004 15.98958332925141 0
24.89583333319863 16.35416666195201 0
24.90624999980522 16.7187499931826 0
24.91666666644808 17.08333332568263 0
24.92708333312806 17.44791665948182 0
24.93749999980001 17.81249999300037 0
24.94791666645933 18.17708332607652 0
24.95833333311969 18.54166665918899 0
24.96874999985664 18.9062499949823 0
24.97916666655788 19.27083332952599 0
24.98958333330658 19.63541666573034 0
24.65909090697006 20.11363636434331 0
24.31818181387862 20.22727272870713 0
23.97727272112545 20.34090909295818 0
23.63636362933978 20.45454545688674 0
23.29545454074166 20.56818181975278 0
22.95454545175678 20.68181818274774 0
22.61363635870555 20.79545454709815 0
22.27272726938004 20.90909091020665 0
21.93181817642107 21.02272727452631 0
21.59090908415283 21.13636363861572 0
21.24999999070893 21.25000000309703 0
20.909090898365 21.36363636721167 0
20.5681818062032 21.4772727312656 0
20.22727271532826 21.59090909489058 0
19.88636362288735 21.70454545903755 0
19.54545453222531 21.81818182259157 0
19.20454544067146 21.93181818644285 0
18.86363634917439 22.0454545502752 0
18.52272726008306 22.15909091330565 0
18.18181816691119 22.27272727769627 0
17.84090907624678 22.38636364125107 0
17.49999998161302 22.500000006129 0
17.15909089129634 22.61363636956789 0
16.81818180107666 22.72727273297446 0
16.47727271035784 22.84090909654739 0
16.13636362113641 22.9545454596212 0
15.79545453028867 23.06818182323711 0
15.4545454400335 23.18181818665549 0
15.11363634812483 23.29545455062506 0
14.77272725866684 23.40909091377772 0
14.43181816866006 23.52272727711332 0
14.09090907805834 23.63636364064723 0
13.74999998745307 23.75000000418231 0
13.40909089754563 23.86363636748479 0
13.06818180839043 23.97727273053652 0
12.72727271853859 24.09090909382047 0
12.38636362812021 24.20454545729326 0
12.04545453791708 24.31818182069431 0
11.70454544876188 24.43181818374604 0
11.36363635991656 24.54545454669448 0
11.02272727049761 24.65909090983413 0
10.68181818161208 24.77272727279597 0
10.34090909059876 24.88636363646708 0
13.53936447392977 5.430518861761812 0
13.29549512714208 5.795495130527656 0
12.93051886163336 6.039364473982978 0
12.06948113743464 6.039364473596931 0
11.70450486924562 5.795495126915347 0
11.46063552506678 5.430518859339278 0
11.46063552603309 4.569481138327832 0
11.7045048727207 4.204504869609567 0
12.0694811382365 3.960635526070925 0
12.93051886277896 3.960635526491545 0
13.2954951309342 4.204504873264463 0
13.53936447498188 4.569481140778189 0
23.53936447355998 5.430518862654571 0
23.29549512629944 5.795495131370292 0
22.93051885878755 6.039364475161753 0
22.06948113763989 6.039364473681951 0
21.70450486886492 5.795495126534648 0
21.46063552518245 5.430518859618539 0
21.46063552641138 4.569481137414567 0
21.70450487359473 4.20450486873554 0
22.06948114105052 3.96063552490532 0
22.930518862583 3.960635526410373 0
23.29549513128127 4.204504873611536 0
23.5393644748571 4.56948114047696 0
13.53936447365637 21.93051886242186 0
13.29549512687994 22.29549513078979 0
[...]
CELL_DATA 3402
SCALARS Von_Mises float 1
LOOKUP_TABLE default
80779099.18664272 76764919.19434687 165620933.54304624 65744140.19903446 65482781.05050204 40889730.94657026 86407192.07909754 79191893.7010592 70749126.00711212 65050640.69091559 59943579.27486022 185872267.64302894 8100867.423837696 76464534.46508282 85301001.19856879 124387388.79571688 87523710.73278339 65680167.61340454 64204911.489355735 79532270.42376876 45300229.050174356 63284544.3275492 86466922.05869177 74308215.40051553 67283834.08715746 103717259.36286554 67375848.50266743 164118540.803902 72829056.168174 65411628.15309435 64312348.911601424 33300752.7197184 33226319.77137971 121549493.97997585 64111561.32527954 63555535.807970464 66950152.27255887 52552330.56000764 65654283.19148877 43026400.42337287 74803206.1326122 62989585.39367095 81884527.26630335 44882108.58964626 44406080.51886862 64864483.087725356 82912000.21729763 70065097.74369419 24216239.5676938 18013718.368380066 66385565.76425304 72209497.91482404 82820724.200055 75594682.81320132 87792246.80910146 28837579.574946325 29151536.727675993 101976318.57602471 74638229.86964129 59707635.82379423 21854474.038054448 37721196.333670564 8685191.564527234 59404798.17374422 76725802.22929426 74517062.27389626 247544814.7037908 125154443.76850188 4248184.520273927 53410789.97500957 51886993.67791365 71814057.40146722 57933407.4782666 60532955.13070525 23202509.762926966 21546946.568104625 78297407.59932415 60420812.91945238 66382051.989136115 1007381.050829481 93554538.07483318 91261995.33687894 41448680.54693734 71218891.26381022 28788710.627605148 79175514.68633622 65114885.312783174 161909644.4050928 30506589.000449102 91638169.32666658 58113514.67404366 50560282.80749775 34050049.89971093 64687890.22701972 82183799.91177028 44610114.08646466 39631058.91913654 63640680.09604765 64765430.55699378 41097835.676198445 40711569.0072635 71095921.04789682 63843984.107951425 54174276.99615341 39496224.91031744 76486612.42299217 47378520.813600115 168502414.9120035 78352992.75112578 28400984.17394765 58839201.648435146 64827870.5287176 157658812.33900654 75672566.00168884 68711123.04542159 59416141.26066646 3594558.615732307 99573388.01057537 75458717.6741593 50103076.15860039 66301773.27593608 91795510.01256889 30928103.400093365 31187748.924069107 64104094.396503896 46626721.382511444 63654468.18059954 56517308.77182204 70164735.04157501 64325959.34635038 63376917.83914189 67365274.00086263 24450140.267859995 50382064.27299997 72632470.9996 25562818.34911724 77832754.85339238 49527448.711657114 80741071.33771849 77621110.27733873 58417617.781431206 176708028.758463 27928509.582707442 67758595.86852919 51271476.17548935 86944105.16568865 67353848.38838315 99762897.24457441 48946298.9597023 77668268.08183993 99105447.08617759 44433412.01429722 52352283.14513922 34098858.63518861 75120623.30160289 69128804.7798863 23600792.788902093 19737979.144920673 88050036.39299682 55417439.13394373 100069608.15668055 31418951.842273623 30243355.023726426 97210974.00742266 39092747.674444534 29987666.38748623 23236250.708359186 91685009.1949154 28311773.45407907 23759263.223248333 49467980.20103205 63259815.9473359 31148692.50400529 49341693.30832421 66222119.45536541 66450673.256563425 9791069.247308245 40405209.97734752 77006893.34089649 78060262.28069514 165496047.66172484 94943970.08732359 49146513.83294771 88225933.83690833 24813527.134816352 7872052.651408099 67475825.29918084 47125330.84689805 67049752.35210972 52634761.1342131 79518742.2845425 32067880.592523754 78660139.46444763 52902807.503400855 68858071.17918706 51997144.788401365 65751773.076453656 20242691.380356207 45505459.507068425 61317111.94571881 71756316.40374565 75208979.59919064 67215878.98230116 78538974.44838795 100158211.86669645 55967463.114802204 60280023.257946126 63750043.42088109 66519077.80849039 40970226.8598989 119988617.11814633 73826444.3139449 39540481.55562671 50968182.69994532 58647603.22386508 66745084.73039853 69183143.8645126 100553527.5851026 53175238.80563355 37844423.21626653 90850853.67547005 48104219.259114556 53350152.09415498 23192333.64358636 19475287.28253902 46695274.43878735 74315835.7102066 65350538.70560511 30694336.492679503 57988809.15770253 71377626.12310815 71571491.1656284 73432658.40355085 23024872.76129586 67676768.6989508 56777834.67453651 57870733.57342828 67264545.96373278 30726185.295835547 95080356.95241664 103100943.78301553 65683850.42282976 39781105.980474606 34210205.545948215 54125759.8981064 76370711.96768422 66225375.947202265 64343241.97224208 37331859.896634266 20058299.222578567 20100272.70815599 21077534.640214838 17418213.030029193 17005115.492240954 6115896.105708716 17099538.63837109 17145242.74374607 69063841.13864295 150095502.76178578 33260227.45038701 10596489.321854385 15704061.71474011 63189472.29329467 98356882.74247852 62766155.3557307 61791560.91348051 20179039.691409655 40011924.08087252 67911237.96764238 54191532.039859764 59319413.63419635 51468028.27571863 65080303.95251293 85180567.94678605 72154727.84081186 61379309.93185824 85366100.4910488 10146291.075511802 77699292.63758634 77645784.77205525 65407823.1394509 69833157.36395147 20294729.922278058 23230169.152781107 63785958.09711636 63764183.345800474 78332233.90907395 41682720.73045586 39502700.38449835 54580069.6245277 67997456.28651428 71024292.83248565 47839881.33020223 101031078.11090884 42124015.06178596 17340919.436242737 55113327.031786785 68459126.2091097 76540176.93724288 27236365.214645017 75124366.33482483 56180854.335368596 49085568.49544653 54749609.28518542 29221397.28523427 24171731.394601226 54192119.287209615 79504864.08053716 70806379.80763726 95822137.84071045 35297095.79291674 96512274.69273275 79157963.3144604 76847596.24976638 19620469.10746456 51271629.13228638 77737446.46608137 27918858.91111405 102059947.17284352 86396326.35139953 70357417.54828677 56734055.81451146 68751107.44491401 72483722.03044319 37822633.00156237 100416090.7937843 54751523.76704719 63196174.09022742 80869039.51951376 73742147.89237379 59164667.41753467 23148249.864288907 95078367.47380012 73072895.55504386 72119311.46851756 46996907.58293978 113849065.72289038 14914581.067915354 50338612.23701468 21500124.994676966 66861407.869464 70824936.7802035 75830206.6855393 61829192.440398626 56298496.212059 78542098.38348974 41469534.85455881 70824628.25735553 1620893.6813570117 61075903.57607492 63065841.52842577 70974494.37662056 54696458.10422664 71670234.70750292 66435176.02270968 52160931.02237456 61833140.067119256 43049947.064205445 136648791.59476584 31695877.099546745 14536789.842994357 36255103.04660298 74262146.39705771 18254333.800972566 57433918.00551062 57108341.24859108 12543824.68289537 66537127.62233917 36725844.97506542 45234340.484804966 48297880.2778918 34653678.947703905 101228136.41399373 71691606.27317493 73043169.20530008 62466202.64230112 66272032.21529051 68990308.5197837 72120616.91211087 30055577.476819586 59245784.167056784 48119440.130912036 24500636.14640784 68860470.65730435 194437802.3484012 63977726.64796595 132690183.93976176 31268328.628202967 66076588.98505848 36379178.53537088 11547112.938326815 63475814.54027894 166323069.76775423 60351166.60202447 33385244.00422105 35825714.30011397 42721065.80707355 72404313.82577047 60474511.459638715 16010683.331746126 39818442.27627116 73971222.59182213 61902724.800002925 77416122.32014751 58245099.945678115 16305507.564052861 74908998.43062967 47753425.48483628 51020684.476944685 37940445.7664426 109480854.45570691 67752346.19208889 51476465.35043404 64842835.171215504 26780865.507502284 72210912.46764293 71653615.6172545 27869167.478633814 10140525.731646761 70834240.80613968 25723106.582156066 80396275.49891298 77970007.5815217 17012088.581950802 67030678.26250429 76066368.84152049 36768664.47786478 61273039.59628337 21420652.67384672 84081019.9918067 87190172.9343221 93726413.19717468 72560779.06977193 70544773.24491464 64180106.48539454 90024248.6709593 9799010.628140276 34269356.04660494 77604870.73548976 36344481.04787667 65181951.801882036 24342575.95707701 24342575.95707701 71938263.91580565 18773623.122431066 68327571.35780872 7525551.027054625 88438576.87461217 18202250.396803003 50666451.569199316 34914177.83961894 54999456.19935097 128318387.37423703 67464347.97561091 59755371.57572232 74307087.64106615 67759903.00155863 46714549.029991746 48014991.58019982 65351493.30258735 76667839.2658239 47401000.06451137 62473074.555675976 12353891.248826208 85841959.7220194 14950651.032269731 40050396.87057448 12119049.438661516 982368.9191964306 81987522.48084927 58846526.32399393 44605270.771294646 15407807.816101706 69876648.90479718 84406324.71469319 60832091.42661722 37493017.75231257 7261912.438959938 44790770.841976896 37266390.05536576 8077341.595807106 68289517.58936462 65167968.18121527 73560246.30981791 85952163.36022323 36256334.2367449 63025911.930274375 43186040.2857201 1043706.1596245958 39482511.58394005 89339604.49056658 35722712.5075942 718079.8412250635 28745116.345116366 62854298.39052501 63600118.07947589 44226231.51596592 74738012.57285078 116690159.32591236 11660994.580065599 90653272.50246666 71252641.31508656 123269395.11526549 70124895.11465105 39012930.985816024 148214740.56131694 26405417.928652804 32184433.20523708 32258236.42620392 14528681.673827533 42064048.98709258 63063032.43042925 22803230.105583057 72137752.4898881 66133310.486308396 29456849.304504268 95758555.67403589 46133990.88368063 79423804.23768915 36503002.65476748 76280459.73117307 50108845.81380159 67348154.09422357 63782624.51132403 49403878.957581304 45983679.82630666 71304323.65021524 75632383.54279669 3573186.455311788 23933328.940836336 30495530.216805685 85936897.96390602 8228163.026360317 13648773.547748387 51537370.735030316 4918977.307012661 85465614.1114432 66355511.15602311 6324769.549342497 32395453.012633275 65429988.78508382 71836344.74986006 63073788.4650341 57342772.2023526 35776408.84248147 71923080.7972896 62810293.19191918 14914581.067915354 49366570.451420784 68370917.31904559 52921172.939849004 73946353.80887517 29233165.65114631 80101088.66730934 72902478.76431973 35714479.618963055 9866132.459571976 139181279.70321143 82466559.66601674 17674997.66827248 67313071.43264227 53409000.43033753 85093714.00918151 30981788.288366757 95232311.28561218 74402324.02860361 3424679.924892515 68722658.24664073 60502460.96446608 77174876.43471417 48012458.42630264 48977723.11953882 72360442.32055159 39694587.04147038 55421048.88627634 4122664.9427568074 78531947.44421057 77337169.47698745 29196983.950207163 72623873.45682602 43381019.76103801 82647769.5560024 94159263.94716729 80765216.7629947 44177574.902680285 30823003.926743858 62633137.955153346 48711212.73397849 76805072.36289623 85428359.75117187 63170877.26894926 67110644.56498523 74562997.77295925 46283469.12915313 66748908.53694695 59828726.77198575 31024935.692532003 36496032.2829962 35072457.42765463 63692389.97052578 76604382.03773648 47435826.53415431 41557164.799306154 42817911.116006024 43724455.8766217 53309876.091175586 53631445.76707849 49920615.77310872 48794292.293220244 60191621.136995055 29111708.277017158 57644110.572107226 68636125.13136604 108955455.53560582 64271046.08369035 47322327.982995115 53534303.20605365 86954751.48063663 129266020.43060838 36029914.013034575 18588332.507687815 78342939.18414979 107533363.82418743 74102437.15775684 3210735.867012789 63474662.75981077 75751568.47449261 58487215.67059827 42223515.651494764 74238988.28583805 82864447.46672982 146207390.21158665 65579665.32405882 39814588.68309494 63467293.31268615 53101338.14139671 17079314.43382177 12169025.411698883 87602321.37277654 36734504.842813596 12164525.440595727 34415551.872780226 32055646.077543877 48931021.89769583 78260101.38137826 59688935.0620258 31619875.679742448 45478076.59265335 71526277.23371534 83368106.91606636 17923356.714994237 62707050.079432614 61864186.3923281 45279228.18722164 68125998.19238487 34207022.092287496 55695019.37167859 26567996.997178074 45137363.530639105 61828193.89696916 47874792.49600133 80060169.85008122 47403951.64452384 39442603.68311737 7482526.037548106 67816952.70184837 2018856.3738920002 50827548.21303578 61589603.69270298 27336919.2066193 34289823.91503409 45374181.92587507 89608293.26438192 75066036.2265921 76545981.77306989 57906147.74669211 78423439.32284488 73916898.71258336 76959531.37905492 5974776.917751518 48409515.695693605 81336526.42849933 77896604.07159314 37480891.00594186 38597445.35864811 35428416.95892358 3290694.245137476 64356499.759984 64911613.18690577 52459980.11481657 83802395.7841624 69762371.36561137 64024449.649653785 49941667.31997741 70233639.46472122 69093685.69604191 82163261.13517061 53148244.09361081 66857030.61266597 84930907.85681197 67353234.66802427 62545347.82658216 241132063.49491107 67438553.621035 62769649.95255063 71654853.15256734 118709941.63700995 24770964.557271533 68953402.65193178 70818583.63572705 60923854.86119485 104066045.65070722 50024788.012561515 63779079.668416075 39710643.336588286 44664198.61032595 12384116.017848816 119035973.49003701 72397081.72111556 55378142.6497561 89594677.23256437 51677835.17329578 46692545.19587778 75138893.85430752 63760987.406200424 137594433.68296605 87405479.69450474 47016027.89821659 70934102.78745757 91383738.88112187 36655486.347695634 9590978.647090735 83203210.51982576 61126201.79739582 57193611.36908356 34152745.39063938 84215437.97931167 59239379.46809155 37095408.92246144 64724957.61879444 39391643.42567893 40789636.27710135 55361041.14767124 69012473.61081156 64390327.41009034 67186646.34193107 12372507.553597178 65608960.06556391 63642646.69081207 97239784.00143076 26541946.441238042 8509804.077861415 80361911.51415801 68640608.80486341 67864270.11933152 110968574.31354952 36120481.403191134 64912523.81342505 59422712.80746744 23431983.43956989 47480945.0232873 70586368.46099299 49365902.53034768 75018386.48975061 87321415.01663527 64513673.02926554 54655233.64074198 74150416.48496713 98213930.9589267 65676763.263328984 13857906.71446837 46374716.064556524 1014437.9432330177 64920782.98378123 30675748.916094035 43945579.38893802 28890908.017994385 15152772.233439807 61734589.21630435 30466112.72931788 34072728.16962609 83399655.61959653 74517702.40683153 23813600.542881563 53980903.28651314 61181814.39697691 57151419.29555633 30927400.584741697 55875568.93497473 37776840.83578829 85413413.90414706 130623262.05156934 68379302.16814175 11995199.600512836 87636322.51654135 8362900.665278671 19452724.304028966 54295557.32575579 80303136.91382328 60553351.07190181 49906479.794828214 50925260.76706476 86610618.55865274 20531652.881392702 13802460.507865684 50956928.25468032 12239722.977450944 64367385.030133106 77619586.35447614 12355484.367288273 36423266.146383904 5748880.242848609 49406192.86245343 66588473.95555168 69232934.68963712 73894743.45478198 15976057.31604011 74100495.45643757 52631790.44589852 54511843.32797714 43341790.366092645 36934411.011004 33029178.308689408 65560962.487196594 50502679.15350514 43832152.03684492 54809141.511309035 75479753.9673252 59161680.9962238 74511541.19892105 82442833.42065951 58216726.19705778 2853949.9646690553 58207145.24226185 72407883.80564308 21185893.328672104 69491906.40919971 37382558.6207803 64827366.57028057 16022653.10433855 51292250.60723452 76335563.43445356 23250120.968397655 87560910.18249072 12099030.205210103 51427008.77255391 34347618.71391543 68636922.52209039 64693013.41973647 46755152.760690875 124674569.93873043 73582923.83243775 32418603.011061043 19971985.172793947 81216272.49765788 42237401.17755514 28265795.09568119 67212924.23472574 58246180.93762107 50015179.066687554 60008785.56527464 16378310.548580881 82322328.96798691 37193470.41415998 40762505.7107782 73374745.13950627 63550997.086912654 90080180.71301048 66255122.729904026 90220057.59797254 5229003.392057151 78441066.97089426 12563505.563741144 67755059.13573016 70595221.10239117 29673325.602277346 41118531.61477465 40798306.95851339 40998633.50646866 41326605.83353591 25354446.65289674 80259426.07978103 29621165.02588639 64447521.77122621 56728914.53420504 67330639.81963575 28466764.41115681 65798013.432023615 20280296.10476636 47279853.50814735 77653734.15904649 108539890.01492329 8217379.834852775 59452743.36292062 68096660.75968304 48715621.13559117 47396055.1364998 69148935.65543306 59956686.52202573 45148008.57887666 16557610.568242013 86836768.30135211 79389342.34185131 52220197.16102891 60534564.820093244 64114295.77648674 27187438.804550495 66223252.75390845 81353479.31206863 65086481.0373005 12505733.741587132 47786109.67626742 95901018.00777999 70247947.9706924 12388279.389738636 46216193.90534617 26472435.76781619 47356541.74392605 66229131.00278377 49543994.537839234 77591477.98735084 86306572.70185184 85519315.57075605 66687821.27784783 66169683.973898694 70318620.50600737 68558917.08273832 63513294.99001252 28293782.898469962 84341936.94317923 32729750.82910234 65010540.581262365 44387162.14402414 109857434.92064631 76926492.7795081 72744415.43758425 26647413.477528784 70004505.8791952 71590727.97907916 44507688.7715466 24828861.939478382 57886955.25813319 44400933.787336834 39194041.389936134 27012072.07706898 85175505.84436822 63629621.09448043 158458366.56633633 69622239.70017886 17726699.584106933 49566174.25871434 73507571.32764861 24592986.411049817 62822065.463783674 15801158.890340142 15779948.32212305 74249241.15254 54495201.62020076 31134693.694286734 67098988.53947009 76903077.18659347 72793016.18024361 65311627.68668527 64197021.438377716 66985546.764614485 84171667.61614028 51651142.6651572 46301692.60890896 8995916.830114739 31107801.754929736 65124559.36528632 52887826.34721907 65918769.38106802 27253429.26006296 27213411.03197858 13881637.256506689 46173246.09118709 77535685.02046478 74857167.2133419 50733875.380325496 33380698.13346969 95074068.70109278 41696755.501039624 41606583.552784376 49856817.18848071 81657084.11655013 84297986.29679145 82723953.46561153 78004920.03865711 35596245.41552476 90639673.71792349 50260839.59662604 63880322.28231569 30800739.488715023 5153015.712506963 66075836.053910054 28432080.85961183 65514812.88838295 82811083.66076164 50437996.712406546 312615356.2218741 16406980.401152248 82662194.32349575 67968516.87750709 63729291.724634655 63796350.38693202 64253692.66807964 45366344.39572661 72414184.45744845 14329193.756698875 58587564.463858895 53499815.86074844 58516512.79600168 62636027.28808505 33231616.5403819 59730366.492828414 56455731.83182239 28073367.85768449 45751288.10523596 7716907.037360244 7714072.955227913 45776659.63521484 63849254.266766764 74379276.55107103 63072486.065405264 55113196.66076405 64433487.75714222 48218829.09124065 65941283.26783628 15971734.363702754 128907400.7515118 39673449.67492646 27706916.13777244 70550175.97419095 62894708.05256386 12658402.482293572 80014659.75463182 15661214.15657849 52989086.445645206 62520495.9567024 19282687.7905301 23021210.05296122 18711810.78389977 90777619.5934145 45980964.39596621 51429535.78826806 87799965.18573399 53470114.91046871 78793756.6736945 50685005.20930548 25793028.34570909 36573764.50439681 84082127.12690969 45794118.699396364 70454950.95490445 77446999.6727223 47651531.151810676 100581903.78705621 81667675.82279113 86988433.54018307 15860388.985483754 10342423.913590606 69353789.46244068 74274773.64753522 76596374.17587094 44430191.82509646 27866999.99896598 35960370.30111176 82244786.82052293 77770408.80289756 74609255.5894481 45130606.52547965 64313637.95803412 63918746.51446525 76716474.54149623 76520951.79169925 38002586.683355436 48865132.20036895 27908485.84333267 62457290.0881797 87541144.58066988 57239034.39730742 22382921.09494836 16975985.123952463 48829714.55961283 69087527.21470381 30047053.597157586 13942259.227097306 86899442.9203281 79480051.80627604 80832646.37885512 83771839.08639477 90853580.85321838 71467381.688612 59518650.82213509 46924404.919584095 101257547.57781433 