# vtk DataFile Version 2.0
Really cool data
ASCII
DATASET POLYDATA
POINTS 2197 float
10.0 25.0 0
10.25 2.5 0
14.75 2.5 0
15.0 12.5 0
20.0 12.5 0
20.25 2.5 0
24.75 2.5 0
25.0 20.0 0
13.21875 5.0 0
12.5 5.71875 0
11.78125 5.0 0
12.5 4.28125 0
23.21875 5.0 0
22.5 5.71875 0
21.78125 5.0 0
22.5 4.28125 0
13.21875 21.5 0
12.5 22.21875 0
11.78125 21.5 0
12.5 20.78125 0
23.21875 17.5 0
22.5 18.21875 0
21.78125 17.5 0
22.5 16.78125 0
12.5 15.5 0
20.0 15.5 0
20.0 14.5 0
12.5 14.5 0
10.00403225807093 24.63709677361622 0
10.0080645161563 24.27419354593253 0
10.01209677424696 23.91129031777318 0
10.01612903230577 23.54838709248107 0
10.02016129035602 23.18548386795797 0
10.02419354841103 22.82258064300752 0
10.02822580648097 22.4596774167125 0
10.03225806456681 22.09677418898731 0
10.03629032266798 21.73387095988129 0
10.04032258075012 21.37096773248903 0
10.04435483879861 21.00806450812494 0
10.04838709688005 20.64516128079578 0
10.05241935495465 20.28225805408125 0
10.05645161303756 19.91935482661994 0
10.06048387112473 19.55645159877427 0
10.0645161292065 19.19354837141498 0
10.06854838727757 18.83064514501887 0
10.07258064536606 18.46774191705492 0
10.0766129034346 18.10483869088549 0
10.08064516151669 17.74193546349787 0
10.0846774195907 17.37903223683728 0
10.08870967767305 17.01612900942542 0
10.09274193573161 16.65322578415481 0
10.09677419381719 16.29032255645265 0
10.10080645190677 15.92741932839017 0
10.10483870998482 15.56451610136578 0
10.10887096806891 15.20161287379791 0
10.11290322615036 14.83870964646787 0
10.11693548422069 14.47580642013797 0
10.12096774229187 14.11290319373216 0
10.12500000036691 13.74999996697819 0
10.12903225842383 13.3870967418552 0
10.13306451647886 13.02419351690233 0
10.13709677451437 12.6612902937063 0
10.14112903255518 12.29838707003324 0
10.14516129060447 11.93548384559769 0
10.14919354865313 11.57258062121796 0
10.15322580671374 11.20967739576328 0
10.15725806477384 10.84677417035441 0
10.16129032281338 10.48387094679534 0
10.16532258087472 10.12096772127496 0
10.16935483892187 9.758064497031445 0
10.1733870969857 9.395161271286613 0
10.17741935503843 9.032258046541457 0
10.18145161308684 8.669354822183982 0
10.18548387114214 8.306451597207326 0
10.18951612919923 7.943548372069355 0
10.19354838725904 7.58064514668658 0
10.19758064530033 7.217741922969729 0
10.20161290333043 6.854838700261147 0
10.20564516138313 6.491935475518151 0
10.20967741944725 6.129032249747367 0
10.21370967750003 5.766129024997362 0
10.21774193554038 5.403225801366053 0
10.221774193581 5.04032257770997 0
10.22580645163059 4.67741935324665 0
10.22983870969496 4.314516127453131 0
10.23387096776351 3.951612901284103 0
10.23790322580145 3.588709677869551 0
10.24193548386297 3.225806452332522 0
10.24596774192589 2.862903226669555 0
10.59615384879596 2.5 0
10.94230769598397 2.5 0
11.28846153932223 2.5 0
11.63461538477885 2.5 0
11.98076923215367 2.5 0
12.32692308114312 2.5 0
12.67307692536209 2.5 0
13.01923077070862 2.5 0
13.36538461224543 2.5 0
13.71153845566042 2.5 0
14.05769230141394 2.5 0
14.40384615085709 2.5 0
14.75892857144616 2.85714285784649 0
14.76785714288078 3.21428571523109 0
14.77678571432 3.571428572800198 0
14.7857142857668 3.928571430672074 0
14.79464285720148 4.28571428805915 0
14.80357142863987 4.642857145594823 0
14.81250000006625 5.000000002650031 0
14.82142857153606 5.357142861442594 0
14.83035714299431 5.714285719772646 0
14.83928571446538 6.071428578615361 0
14.84821428592949 6.428571437179454 0
14.85714285740048 6.785714296019075 0
14.86607142885319 7.142857154127467 0
14.87500000027791 7.500000011116425 0
14.88392857167472 7.857142866989042 0
14.89285714308988 8.214285723595362 0
14.90178571450818 8.57142858032706 0
14.91071428590076 8.928571436030644 0
14.91964285725977 9.285714290390665 0
14.92857142864635 9.642857145854018 0
14.93750000005199 10.00000000207956 0
14.94642857145045 10.3571428580178 0
14.95535714287157 10.71428571486281 0
14.96428571429883 11.07142857195331 0
14.97321428570877 11.42857142835066 0
14.98214285713628 11.78571428545122 0
14.99107142858074 12.1428571432296 0
15.3571428591223 12.5 0
15.71428571719138 12.5 0
16.07142857423201 12.5 0
16.42857142974857 12.5 0
16.7857142846084 12.5 0
17.14285714112862 12.5 0
17.49999999772317 12.5 0
17.85714285297952 12.5 0
18.21428571083795 12.5 0
18.57142855939082 12.5 0
18.92857141386655 12.5 0
19.28571427430228 12.5 0
19.64285713574168 12.5 0
20.00892857145444 12.14285714182253 0
20.01785714288121 11.78571428475149 0
20.02678571430391 11.42857142784392 0
20.03571428575173 11.07142856993083 0
20.04464285716307 10.71428571347709 0
20.05357142862058 10.35714285517672 0
20.06250000009985 9.999999996006125 0
20.07142857160473 9.642857135810823 0
20.08035714307449 9.285714277020388 0
20.0892857145293 8.92857141882806 0
20.09821428593644 8.571428562542428 0
20.10714285739586 8.214285704165588 0
20.11607142887573 7.857142844970847 0
20.12500000035236 7.499999985905506 0
20.13392857174129 7.142857130348313 0
20.14285714310267 6.785714275893214 0
20.15178571450528 6.428571419788685 0
20.16071428590087 6.071428563965252 0
20.16964285732718 5.714285706912793 0
20.17857142873676 5.357142850529643 0
20.18750000014888 4.999999994044952 0
20.1964285715605 4.642857137580068 0
20.20535714293256 4.285714282697754 0
20.21428571435444 3.928571425822371 0
20.22321428574628 3.571428570148774 0
20.23214285715693 3.214285713722903 0
20.24107142855655 2.857142857737868 0
20.596153845103 2.5 0
20.94230769181397 2.5 0
21.28846153698369 2.5 0
21.63461538161964 2.5 0
21.98076922946485 2.5 0
22.32692307653609 2.5 0
22.67307692028468 2.5 0
23.01923076562454 2.5 0
23.36538460449588 2.5 0
23.71153845024273 2.5 0
24.05769229413811 2.5 0
24.40384614838844 2.5 0
24.75520833333718 2.86458333360238 0
24.76041666667798 3.229166667458308 0
24.7656250000173 3.593750001211001 0
24.77083333335809 3.958333335066103 0
24.77604166670141 4.322916669098772 0
24.78125000004511 4.68750000315787 0
24.78645833337953 5.052083336566992 0
24.79166666671298 5.416666669908391 0
24.79687500005813 5.781250004069072 0
24.80208333339111 6.145833337377437 0
24.80729166673437 6.510416671405975 0
24.81250000007497 6.875000005247864 0
24.81770833342114 7.239583339479573 0
24.82291666677311 7.60416667411762 0
24.82812500011363 7.96875000795414 0
24.83333333345632 8.333333341942213 0
24.8385416667967 8.697916675769235 0
24.8437500001361 9.062500009526882 0
24.84895833347101 9.427083342970692 0
24.85416666683082 9.791666678157132 0
24.85937500017594 10.15625001231616 0
24.86458333353615 10.52083334753068 0
24.86979166687154 10.88541668100752 0
24.8750000002114 11.25000001479821 0
24.88020833353079 11.61458334715515 0
24.8854166668455 11.97916667918503 0
24.89062500018088 12.34375001266188 0
24.8958333334951 12.70833334465707 0
24.90104166681805 13.07291667726343 0
24.90625000014924 13.43750001044626 0
24.91145833347969 13.80208334357788 0
24.91666666677206 14.16666667404435 0
24.92187500007075 14.53125000495268 0
24.92708333337507 14.89583333625455 0
24.93229166665025 15.2604166655177 0
24.93749999993438 15.62499999540688 0
24.94270833326972 15.98958332888 0
24.9479166665939 16.35416666157307 0
24.95312499989663 16.71874999276385 0
24.95833333321826 17.08333332527833 0
24.96354166655782 17.44791665904754 0
24.9687499998933 17.81249999253098 0
24.97395833322337 18.17708332563618 0
24.97916666655323 18.54166665872609 0
24.98437499992156 18.90624999450882 0
24.98958333327948 19.27083332956353 0
24.9947916666537 19.63541666575921 0
24.65909090697006 20.11363636434331 0
24.31818181387862 20.22727272870713 0
23.97727272112545 20.34090909295818 0
23.63636362933978 20.45454545688674 0
23.29545454074166 20.56818181975278 0
22.95454545175678 20.68181818274774 0
22.61363635870555 20.79545454709815 0
22.27272726938004 20.90909091020665 0
21.93181817642107 21.02272727452631 0
21.59090908415283 21.13636363861572 0
21.24999999070893 21.25000000309703 0
20.909090898365 21.36363636721167 0
20.5681818062032 21.4772727312656 0
20.22727271532826 21.59090909489058 0
19.88636362288735 21.70454545903755 0
19.54545453222531 21.81818182259157 0
19.20454544067146 21.93181818644285 0
18.86363634917439 22.0454545502752 0
18.52272726008306 22.15909091330565 0
18.18181816691119 22.27272727769627 0
17.84090907624678 22.38636364125107 0
17.49999998161302 22.500000006129 0
17.15909089129634 22.61363636956789 0
16.81818180107666 22.72727273297446 0
16.47727271035784 22.84090909654739 0
16.13636362113641 22.9545454596212 0
15.79545453028867 23.06818182323711 0
15.4545454400335 23.18181818665549 0
15.11363634812483 23.29545455062506 0
14.77272725866684 23.40909091377772 0
14.43181816866006 23.52272727711332 0
14.09090907805834 23.63636364064723 0
13.74999998745307 23.75000000418231 0
13.40909089754563 23.86363636748479 0
13.06818180839043 23.97727273053652 0
12.72727271853859 24.09090909382047 0
12.38636362812021 24.20454545729326 0
12.04545453791708 24.31818182069431 0
11.70454544876188 24.43181818374604 0
11.36363635991656 24.54545454669448 0
11.02272727049761 24.65909090983413 0
10.68181818161208 24.77272727279597 0
10.34090909059876 24.88636363646708 0
13.12245575810983 5.359375001489979 0
12.85937500007252 5.622455758928196 0
12.14062499745613 5.622455757501361 0
11.87754424071326 5.359374999451498 0
11.87754424189017 4.640624998510021 0
12.14062499992748 4.377544241071804 0
12.85937500254387 4.377544242498639 0
13.12245575928674 4.640625000548502 0
23.12245575866386 5.359375000530365 0
22.85937499942928 5.622455759299569 0
22.14062499843458 5.622455758066268 0
21.87754423944776 5.35937499725959 0
21.87754424133614 4.640624999469635 0
22.14062500057072 4.377544240700431 0
22.85937500156542 4.377544241933732 0
23.12245576055224 4.64062500274041 0
13.12245575835722 21.85937500106149 0
12.8593749974183 22.12245576046061 0
12.14062499962912 22.12245575875594 0
11.87754424065191 21.85937499934525 0
11.87754424164278 21.14062499893851 0
12.1406250025817 20.87754423953939 0
12.85937500037088 20.87754424124406 0
[...]
CELL_DATA 4072
SCALARS Von_Mises float 1
LOOKUP_TABLE default
46184879.05923747 16115903.083278477 52231940.2058088 63001963.06698233 26666880.10948054 8828033.907031741 39522467.94977495 53438027.74889652 20456000.127431415 59274448.73417252 50976818.95168233 14072142.576168893 34200108.76216074 13384575.311432205 26925857.801151283 16081572.282998813 55326345.44453291 44202591.58567708 41034609.12025899 53236310.60983427 50996974.16655347 54958320.69065963 17623858.201928142 33967382.07420485 12567097.822339239 6000052.641163974 52653690.32435937 34993774.74751332 52269790.71738647 55059377.86346522 5548117.280290983 57118925.72346572 17676726.220123496 43235239.61902105 52963066.40100498 38189214.69836631 52410463.56527567 52052945.50334811 27454992.33985363 57844588.91629526 52608989.754079916 51885260.40316516 5983379.831605469 53902302.71855077 49338521.343136 33890538.32207893 61600499.95806738 50608084.96500818 58028889.78513097 53764637.42668186 9601433.723095063 11057210.13431466 53555214.423588105 4299761.663180016 9430720.209318664 47652925.37161418 64077705.89831351 46814902.37732653 41529457.65375063 38238164.187393405 71608036.38589498 52283823.245777555 37128256.80573569 14463443.300881973 46823903.70188333 15712257.179869026 14115678.307884209 58946018.467124306 39607231.5083263 21087863.652227294 36691045.34433598 54803414.44415479 57204507.73105336 76998484.96640068 53560975.896259405 45032338.37790943 48334974.07223214 18602265.502800997 45785856.66543799 24804984.74645189 54998626.5897091 55008632.405710526 53071916.985810556 17701123.803258047 27567110.93223389 6440226.410216007 6468403.843861448 5358653.357074454 29265458.258490708 48206832.68999172 63530828.49365027 55338495.407398865 34472810.670113534 12761724.86730602 50260842.696160495 41975317.24972385 53009465.20886629 5353795.321670832 39118916.88167609 52870524.79747474 49354849.287305996 35875649.83726873 68597297.91360156 51166778.95656463 53333829.81854764 52526140.86250397 52929352.62274267 45517603.07354483 8941586.998092787 32962224.986750122 25588180.015991684 14158318.439889463 42625242.34422355 45957434.773333006 46980796.11382722 37636943.326068565 15080235.29236267 49394329.61656341 30900979.326174837 60868159.0972734 52373200.72705155 73061768.4700859 53835203.355996326 28512037.320854224 50588477.53247154 24458052.200762164 62451929.67057954 28517912.795151435 16558536.318576066 32935334.760595515 52241442.22224341 32718579.25676603 55815085.06701767 41796224.98625393 24062186.597589046 51796191.45463615 31087017.012331218 49304686.03030028 30796364.903730463 38031267.03679498 30084304.17797884 49934255.22845618 37362657.97285437 26105178.07959834 49097693.37494759 48902721.47524451 42866654.385928966 6423263.157063269 43630349.87219786 12063547.813499503 30690637.389307085 34236112.393685535 51540471.669520415 31276644.60080164 47266401.35486859 54284162.12547427 47605199.18428012 46492969.34522456 35319120.90714559 23308917.14744924 30604978.368624758 46810275.64805831 30384450.533667002 48240229.48775827 76434943.19593827 47687550.24638425 36343273.317904584 72586691.9314245 40760791.756391935 34941337.75079582 22515876.58177776 28363946.10474174 57182752.24666283 30770704.28471646 83689164.81482223 20868736.297566656 15739496.979356863 45859149.32449271 34887278.444385245 43888569.55532644 3922325.101493258 26536182.53967328 47815282.51950371 3915016.5935854246 217735933.08248413 16651643.28571404 31707276.744852625 50777504.10001936 27271135.58583627 43813515.11669561 51925920.297420114 6080758.551136931 43486116.887377456 29245205.247974373 40769693.8315417 48611572.93851477 49611642.13486467 7830694.543292819 44656754.2696666 36731135.79129966 41664343.28066177 41093283.73920156 58311575.769995 32902037.83683285 95427669.92486192 9603186.636644766 49566782.5001874 34661479.76051985 22645666.16741441 33643855.222635455 58257397.00249824 45818650.39081718 29362343.969744574 33361298.561041806 4754044.470593769 13132418.70783402 60290233.45688314 41967953.37465563 53046906.291685626 42862587.58477365 15899800.736101182 28759571.39428356 7162903.614463977 54545793.69014866 51847405.340125054 69358465.85234775 28685499.61437363 61254209.85702686 98274356.16677786 5795786.965144097 61667752.83647252 41368493.325653635 28798777.848667324 51518094.69385544 61991920.970426925 38557653.81705664 34845325.769855544 29755568.53347063 45315922.65174621 37669233.62823084 7634120.725341865 66607095.31256535 7870165.293189323 22947996.555640046 14276634.998539709 57144042.95767128 55763292.81199912 53486344.37831846 50695347.94382642 38041874.207578 56260583.04515249 3700738.357988105 63198753.63567366 15938902.122390842 45132429.14516603 46506141.16595069 3721546.7690597847 38859209.134297505 25430644.93973507 5861502.049938163 138692343.73728463 33756632.43010054 2436812.6497886847 38954746.85133395 49317746.80618562 18154473.36769135 5512211.268047722 43619511.37703342 36186571.29791775 15086166.475536458 46266295.765321136 48573694.29723973 29536887.533818975 31079009.3388531 36975074.49146232 54603039.60081669 48675932.96746935 47421861.80548281 15572409.36594445 31569935.732244067 49032896.81610802 65560074.12061024 51303814.7535329 2816559.6393131604 31653851.716549687 25381051.818899803 57982821.158359416 57409300.012814686 45259226.58491092 41735649.77817974 53559062.49165446 51046989.16999422 49901612.87711121 27877104.55519167 57466556.048600234 46684547.03262474 51688077.15416161 22589572.831834853 9029766.629447734 6261812.899345703 22108957.867683917 43762787.38404158 52370187.43977203 47951016.66045862 42586357.39606799 44178335.742603526 20183249.38729387 64431983.49275144 61568586.41088513 25862417.278644808 74192951.50483213 12979525.38535534 15773846.752749112 44291260.72710576 66992973.136555076 3219517.460113744 40211505.78672502 23400725.150831934 24545845.317650262 40428530.49772998 52993487.49960239 12511771.515605355 52724313.82278099 27331108.596380714 30869402.19795879 27389788.05285992 50790635.545585215 39585046.519331224 50902200.836300716 5940463.422346568 21951139.312358707 48958662.28832775 1119308.0074519007 53063873.52442777 53445887.71802042 54003402.61883643 48325150.15408867 59907858.70991249 49120534.275648385 54499726.39497422 48890056.95126753 47040019.88652196 55022646.82056065 80416736.87951292 59335402.037942775 11737816.274303515 62951533.27359171 36570943.23954585 37408699.414088935 54349373.69315813 73760699.39307185 1746309.5831857857 27260268.197601315 36823505.14530202 15795959.827430999 35913815.232643485 5389555.744243707 57406933.423118696 51693167.04535339 51278780.398213424 14594139.08353281 30865811.278943326 3925258.0434189015 54016631.65180889 16849545.923505258 54110185.60728592 57158274.71266421 30021956.33542397 55068620.04647457 19362879.783186585 71415122.95451783 49700464.56022369 48310174.059853666 3112563.000672021 49572011.30095646 31473155.74919284 27264963.91398988 33991136.75763627 51861406.82624891 43321353.88677208 4676795.641558932 126277946.10709354 36245011.94753909 23254101.445501603 13409306.24001807 23883527.726159424 51708468.49532956 49075060.206078924 23682531.418542266 12359597.35628073 25502742.443093937 43019852.92181934 48738283.40263822 54179612.26638365 59385463.14403103 62797976.99334306 48793183.24062532 46303680.26320527 52641336.90048817 26800501.511342242 18343997.125151955 32171099.68661541 31553155.464778095 63885837.95303141 26251297.354316957 27459995.430521145 52821146.07958285 60640006.127199225 45804936.21055986 28120499.857931983 11643401.262163835 34691756.339843616 45797512.35168752 15541110.237913497 45054980.9346518 36320615.577040605 38882634.42774128 48388444.45152961 42045699.96813883 52870104.60262827 56111144.79702312 35195563.45916302 51989509.132264815 35124557.28943423 52960806.277846925 54773412.93854012 5882105.268442766 52474192.902837485 54292901.367368415 8235561.674471123 47868442.72586611 48489804.32984596 62045231.83052809 37724836.89132944 57054861.637616836 6150723.765920619 51066718.44216716 47343823.742221 20186249.854397237 43267828.31019196 28644287.978917904 34274737.30703297 32315663.311237052 8655559.16253604 44945827.00450335 34125654.250661425 35689825.89235386 48723379.477328256 52569437.43018975 54524943.769164056 10784817.083596842 47502570.819624364 46653240.85835361 48207573.41939122 59784362.22718057 53177081.31405272 38047215.06479859 34864466.70220254 8843145.46498824 8863257.013643546 50616393.3502495 42486653.27543887 39905699.01430337 52103029.128218435 47866982.89303658 42023742.38343995 28667508.920535803 37760709.64947718 53387188.293506265 58161617.73132553 51034214.70097675 33055252.171201088 21758503.084955506 34956495.97249181 52700490.909403674 53936871.549215995 26813931.130716626 35955330.18751432 40569807.19869981 23294793.1606615 60596217.4746659 8549073.20239419 62752147.44484266 48680147.50359987 47354216.35889937 47734588.942777544 33901577.709858455 56165638.279004015 91671941.31354696 16251527.551488608 16251527.551488608 47205924.15679651 47723284.27768916 62513501.292999074 19258668.13775156 57179733.06679384 37816027.57889878 41641153.09910023 53666958.51677483 48421160.29252599 4261975.871785932 40675142.52184581 42010669.342339516 24992202.737286583 18251064.658247035 16652139.975409549 49602048.8914496 49129576.9283087 41247055.59746277 67287866.89099899 37957048.62956888 19519433.78239991 35304758.738800555 41125471.18439679 47168714.07165 49857409.018067814 40977055.03464443 50922768.846987896 10792874.24584241 45315178.34758831 37200866.73249892 47170368.98537058 48788974.492054045 3837869.7664418444 3829607.1736632646 40574579.53213454 41450379.85257395 15695452.965913342 51948519.93487211 29004635.686323658 41961429.712960675 4558749.193414208 41024557.25197107 58875655.73112142 26667983.341583062 36073041.78645597 47568415.01597377 52837164.746275365 29366334.7972245 47579823.28549634 54719097.55899381 53396507.1382465 6593998.467619367 6720912.934660356 27511163.661686774 44675729.60286731 25522313.85887106 2200961.007666231 92247440.25759968 101235644.78406367 49526676.25834281 11459918.69698049 43477473.121764675 81064519.20626114 22112329.205853976 52896643.19376302 20703507.938261114 76597044.56318133 49123234.355336085 37257812.85069384 53070423.94991774 14773382.076658932 51649102.38766777 14780178.501842286 56338498.72623214 40112752.962324694 10452520.03202745 17436252.173777565 53814557.53694175 42620424.306437716 24950742.841376375 26791070.196560435 5657316.371448583 48382813.05974038 54852174.31826285 7525804.457592462 54181841.37846504 46023042.92512608 33861597.818576485 25379682.51335985 60334115.82507547 50270508.30755615 62002362.68415188 33995011.793942876 29084177.68987458 4036202.007327709 4041860.2801292865 26537223.087785076 28821511.32572544 50688652.19774089 66127978.5170257 42437454.34629145 55995640.59406452 34974596.034313776 48003953.50452904 38264436.68715147 54778268.00686426 61918789.53448427 45756340.72712746 49686834.65484093 2602544.509860414 2587567.731195619 20307186.665481955 8839862.80762558 66390561.394402735 58409674.43454804 81615149.29569674 44928402.650513306 25738268.286068514 29578098.172361903 18970320.260639653 1493755.569779416 37030846.50870725 14282766.573427998 50723344.38615962 55629315.23869373 810688.8677092405 55837280.81471071 60240080.73750002 56982834.65077585 497861.75453777955 21845920.011274997 17635473.559232224 147470484.83630085 51574377.36392344 57476723.72572638 36518302.80503946 24596614.01776983 65297415.909439445 57844099.748327434 14346947.51827677 48501358.02547354 51863975.554017656 43028588.78750506 21751412.881984796 33383325.98876279 56068970.15963463 38153412.046080045 31117809.345707856 64865792.054599725 44022919.64416806 46692070.73397524 51410293.03281988 50215430.325404204 50803689.91601153 28917838.712862637 58723783.23207203 48096306.807115786 1698640.605923949 40748814.54925765 56578249.34240668 50695916.03837986 49014267.45550026 53758200.07220628 89227714.60025032 46472792.82489225 57305415.837720625 52575305.95812724 53287640.66708246 13382379.539077437 44251773.33293657 54451803.777373396 50994875.70049056 51955254.98865255 16483627.91679231 33260800.92347319 39875513.19542063 104973278.24458024 52187689.688652396 33000518.15345802 49031909.37027959 61962283.12307018 49034677.85913296 42635037.69279786 17664279.333749976 23185202.4620125 28454058.596909307 45716090.244302854 32746877.072226766 8746123.598421896 17110228.149015967 8795617.409323918 67285191.41804013 50734160.55705112 12332558.129114877 12260468.312205128 24726199.236112636 26838785.204548758 63031960.09979171 45329368.740562536 12138973.72319505 12248228.724909429 51565571.2843091 49637551.81942102 39012948.89635857 55496651.67683096 14507713.60775472 23231933.18189875 33976390.89726441 38400465.50132803 48705997.583696865 14284684.27946636 52808713.963274136 14211714.646144694 14013351.141051637 12975155.474768851 51256543.35846736 49877840.23900368 69229698.39519724 63669838.07242467 16342565.869112423 21410374.92208736 54200520.543844886 47246156.017347984 57959649.13123952 55230769.610658884 81221703.80058238 22965985.859872166 59550509.678060375 20904270.241526905 16620219.862089356 183336920.67795733 45995106.33416205 35401960.31969041 5701055.120104505 30706468.092008576 4596310.181076257 123442802.70097226 49728106.96795939 20910579.60163666 68788120.39223605 16583309.180290796 48586890.002914734 30322288.298895318 33037546.473082643 27387952.751367833 45141815.13062491 119885740.72058739 46458507.39644338 102312683.84911467 30663709.020604204 71125548.86079867 13764014.821151834 28683601.523626465 53508156.043022744 51224823.57116428 21920867.64111023 57149519.02488381 14632325.912312152 87869276.25027326 39578505.33464872 49655709.59016249 36970877.63966167 35601787.36240431 48283563.7565375 48561786.58744983 33630309.32252265 1256168.4617838108 30988317.5501347 55103694.8286009 81730932.63329859 55177580.298555516 6762884.732224153 59907358.14313485 19414043.10185222 61429871.687730476 10602178.154968245 48487022.11499302 90479621.49130239 38369111.02429193 28956628.572801795 31324592.865301255 46710071.03649575 51635928.56822264 39723019.76867194 95470658.90138648 51651207.07833291 36864768.1818254 35184741.76310577 3387756.608421186 35096296.77247277 49170664.52436426 49629851.595308 50697248.58000755 52805781.36347158 6166846.522663705 27173589.11412415 48856831.34567338 50078949.22161389 39708444.67456151 16445005.449892024 41184929.09446407 11735780.112001222 34059785.45160764 19139718.77322341 33829781.33941073 37214320.39592357 88330096.12833092 48842522.73685719 87876854.35186733 49238250.447045825 45259042.99359608 41381834.35493304 52139684.55079583 55197654.73235333 67234207.7778832 8670517.377278795 37487084.50297965 8972428.26792368 42821136.833584 24606224.616781563 51044353.755876325 26136380.613767926 60503228.669127956 47998266.88676607 70104623.13271144 48925665.40865004 37288046.06919847 27477032.932670966 39659671.01605219 44951209.31982981 60374380.04455744 50206005.26986656 43077445.777493455 47548133.30365355 24696397.17715633 14752034.886878813 14771695.380942065 49436079.39881903 37269300.878710635 22569482.435217578 56917297.36332491 37731918.773808435 52184885.271394 31984093.425662767 17862959.16470755 58651026.98178501 9883421.533484135 9939731.293349788 58559032.98112262 35858825.69449022 50345733.741897106 87981801.720778 26164653.232835177 50343283.76034489 85553461.74855433 25258953.787752874 40785078.76177939 39319199.43853951 40439580.265565805 52865776.52792701 56532914.00333582 32444953.229650576 12525908.882326309 52371052.57188888 48952424.06374321 50295204.56080893 53631783.18907626 40983748.26851034 34158352.35011269 91191357.58450878 40320114.16846123 18824026.511448164 41074167.802503735 49930559.732104205 51416784.00123662 7298857.0570867425 51613603.83692339 113897267.95285156 47357110.204463124 46918547.29615149 46291031.665553 9170450.257310709 51277217.32458266 57834910.30771464 48134061.69128945 78810104.1174584 17876806.499714054 50756183.75198795 39059540.00317451 49031483.61801374 36117253.98008997 43396914.69463635 59331770.115091905 41402713.214064606 3360343.057711108 41021515.12275409 19615405.95479654 14896531.870823218 52441028.472324066 29212612.422380514 57188830.0416582 53199643.37142523 32551696.763747245 38306217.617624 50277104.61124526 55426524.270196274 43085970.22568427 44272450.884103246 93606695.43516538 31594052.42801731 33281716.177824598 39321399.11134254 19601059.18887424 48447991.64375642 21921711.89735358 20182507.10230212 87593428.15703593 4633682.087079517 6973308.112141011 48642774.04416611 38144412.21098201 60424065.67590857 45995336.50494684 6943718.050603389 17990114.006225187 57009600.855134815 44818666.529452756 14763993.110780781 17563060.250273556 53387031.375058874 38695134.35865921 44848307.68152081 36585180.03446579 53513857.96943222 48451389.9901661 48967602.004221216 45221630.23473567 52580062.58073346 51261621.146423236 28510811.296954844 48066023.29883835 80899350.95397802 47169318.75720797 56529679.945821166 52661267.89787531 50943207.7154207 132409726.29569963 37916759.11886389 53753737.21648752 43106261.325548574 68394713.90666841 34799082.25294519 6586264.976513949 50239165.01285974 98145603.36572228 3659509.518682529 56949934.09249985 88250431.38388519 51415496.51223488 49680064.37128056 29972850.557310946 14502182.350048894 38536769.52602459 45473382.47881993 49341432.44571179 43646223.66797291 17787287.605088416 31925300.456598233 55747492.47940657 53222917.69774382 54510443.157022886 23626741.648763385 40815153.56254867 52854618.091409266 60483424.57527449 16619595.330915924 48660118.79711982 51075493.557753466 43299088.02946856 31250887.80264029 1192439.4116616957 31674932.440368537 38804582.99726243 28738954.08946807 41093584.13590788 5194192.602077017 12865230.498332439 11613982.777994754 44560778.45805562 26296471.372698754 54646449.62593252 41773822.521959245 51251036.22122578 3011808.125714719 34149619.360710025 32384618.53363197 45979937.88628172 18770405.912958603 31666679.652505826 20917902.65174089 34059320.66169778 48504202.66643815 39411891.08148684 49264373.22687629 45985741.8316916 37152346.12128381 47587698.34974297 48799081.38724385 31356048.44336289 46331721.28691281 5710882.857179866 5695013.602101968 16269301.606037108 44269773.72849232 35227598.63070355 32808108.73407909 61529375.52231953 33958772.56174266 23884834.069035012 61895759.867662355 49567581.11479103 62617476.383816235 49637237.059135586 16392319.834158707 3703249.873556203 56129358.383252874 146614473.37544045 16386310.51902373 46522765.40951234 50549373.50520561 42439017.74829854 49489374.261968955 29576120.454734527 17785647.23567778 52133111.6861311 49655401.200619645 85138654.96642151 27485764.708576612 28409746.71589402 37050257.87574807 53248501.70458506 50392480.15023188 1430804.5360416519 59522378.07235443 23335386.94048616 24609207.820631787 46522036.15407619 20779396.755984183 17728327.88465422 143977718.20724332 34517809.46069773 52950687.97098173 54718476.89134223 55926862.9188548 40709534.74529223 27324229.226449624 32204259.570917208 58079583.97634217 39941290.26605571 66663945.99774573 30197975.204733327 45990006.275582634 34632235.02472424 19318415.405231014 54652227.0579665 40765678.7868342 22282408.05086053 34736367.63098154 53085603.06813724 99179367.22812362 24324230.400604147 71741645.46975243 46751474.08802585 38181415.67286767 24288098.45551211 72383474.85670035 55689647.1876862 55836989.18807172 51246004.16216393 4666923.100333064 50333564.85436922 34434558.37096162 23829111.636089936 37048038.689881966 51965515.82056137 52390262.77952886 27780265.48177113 33428885.225575134 60699750.420130946 53263123.21364137 40748689.96474667 53330195.79192114 51504643.72201631 6811355.628786176 59734309.47168048 52163486.9657651 43578378.399996184 47159948.82698938 51389720.0053033 45417750.132502586 233711