# vtk DataFile Version 2.0
Really cool data
ASCII
DATASET POLYDATA
POINTS 2353 float
10.0 25.0 0
9.499999999999998 2.5 0
15.5 2.5 0
15.0 12.5 0
20.0 12.5 0
19.5 2.5 0
25.5 2.5 0
25.0 20.0 0
13.015625 5.0 0
12.5 5.515625 0
11.984375 5.0 0
12.5 4.484375 0
23.015625 5.0 0
22.5 5.515625 0
21.984375 5.0 0
22.5 4.484375 0
13.015625 21.5 0
12.5 22.015625 0
11.984375 21.5 0
12.5 20.984375 0
23.015625 17.5 0
22.5 18.015625 0
21.984375 17.5 0
22.5 16.984375 0
12.5 15.5 0
20.0 15.5 0
20.0 14.5 0
12.5 14.5 0
9.991935483858025 24.63709677361116 0
9.983870967686876 24.27419354590941 0
9.975806451505594 23.91129031775169 0
9.967741935387979 23.54838709245913 0
9.959677419287308 23.18548386792893 0
9.951612903177157 22.82258064297202 0
9.943548387037561 22.45967741669023 0
9.935483870865918 22.09677418896629 0
9.927419354663494 21.73387095985724 0
9.919354838499428 21.37096773247424 0
9.911290322402236 21.00806450810057 0
9.903225806239442 20.64516128077486 0
9.895161290090327 20.28225805406479 0
9.88709677392396 19.91935482657819 0
9.879032257749005 19.55645159870528 0
9.87096774158539 19.19354837134259 0
9.862903225443695 18.8306451449664 0
9.854838709266936 18.46774191701208 0
9.846774193129884 18.10483869084486 0
9.8387096769655 17.74193546344752 0
9.830645160817648 17.3790322367941 0
9.822580644653016 17.01612900938582 0
9.814516128535823 16.65322578411198 0
9.80645161236424 16.29032255639083 0
9.798387096184427 15.92741932829917 0
9.790322580028553 15.56451610128487 0
9.782258063860747 15.20161287373363 0
9.774193547698067 14.83870964641301 0
9.766129031557885 14.47580642010487 0
9.758064515415136 14.11290319368108 0
9.749999999265055 13.74999996692745 0
9.741935483151023 13.38709674179607 0
9.733870967040986 13.02419351684439 0
9.725806450970376 12.66129029366696 0
9.717741934888643 12.29838706998896 0
9.709677418789838 11.93548384554277 0
9.701612902692275 11.57258062115251 0
9.6935483865711 11.20967739569949 0
9.685483870450787 10.84677417028545 0
9.677419354371613 10.48387094672266 0
9.669354838248523 10.12096772118364 0
9.66129032215358 9.75806449691109 0
9.653225806025599 9.39516127115204 0
9.645161289919614 9.032258046382696 0
9.63709677382252 8.669354822013439 0
9.629032257712137 8.306451597046282 0
9.620967741597934 7.943548371907037 0
9.612903225478219 7.58064514651981 0
9.604838709395764 7.217741922809518 0
9.596774193335289 6.854838700088075 0
9.588709677229938 6.491935475347274 0
9.580645161101724 6.129032249577598 0
9.572580644996847 5.766129024858337 0
9.564516128916669 5.403225801250091 0
9.556451612836 5.040322577620052 0
9.548387096737235 4.677419353175575 0
9.540322580608505 4.314516127382788 0
9.532258064471684 3.951612901225835 0
9.524193548396726 3.588709677852687 0
9.516129032273984 3.225806452329359 0
9.508064516148213 2.862903226669649 0
9.852941176575179 2.5 0
10.20588235384425 2.5 0
10.55882353096536 2.5 0
10.91176470721401 2.5 0
11.2647058842994 2.5 0
11.61764706100214 2.5 0
11.97058823810794 2.5 0
12.3235294170403 2.5 0
12.67647059214862 2.5 0
13.02941176563702 2.5 0
13.38235294061013 2.5 0
13.73529411351178 2.5 0
14.08823528775529 2.5 0
14.44117646397333 2.5 0
14.79411764123219 2.5 0
15.14705882094263 2.5 0
15.48214285710404 2.857142857919064 0
15.46428571423325 3.214285715335077 0
15.44642857135935 3.571428572812889 0
15.42857142846433 3.928571430713412 0
15.41071428559489 4.285714288102234 0
15.3928571427184 4.642857145631958 0
15.37499999986416 5.000000002716725 0
15.35714285692995 5.357142861400871 0
15.33928571401367 5.714285719726578 0
15.32142857106964 6.07142857860725 0
15.30357142814068 6.428571437186336 0
15.28571428519924 6.785714296015096 0
15.26785714229736 7.142857154052814 0
15.24999999944757 7.500000011048588 0
15.23214285665211 7.857142866957921 0
15.21428571381986 8.214285723602668 0
15.19642857098651 8.571428580269666 0
15.17857142818586 8.928571436282821 0
15.16071428546017 9.285714290796712 0
15.14285714268139 9.642857146372322 0
15.12499999988752 10.00000000224952 0
15.10714285709138 10.35714285817244 0
15.08928571426198 10.71428571476034 0
15.07142857140775 11.0714285718451 0
15.05357142859945 11.4285714280109 0
15.03571428572961 11.78571428540776 0
15.01785714284225 12.14285714315502 0
15.3571428591223 12.5 0
15.71428571719138 12.5 0
16.07142857423201 12.5 0
16.42857142974857 12.5 0
16.7857142846084 12.5 0
17.14285714112862 12.5 0
17.49999999772317 12.5 0
17.85714285297952 12.5 0
18.21428571083795 12.5 0
18.57142855939082 12.5 0
18.92857141386655 12.5 0
19.28571427430228 12.5 0
19.64285713574168 12.5 0
19.98214285709066 12.14285714181319 0
19.96428571422755 11.7857142845509 0
19.9464285713915 11.42857142782999 0
19.92857142850372 11.07142857007454 0
19.91071428566385 10.71428571327699 0
19.89285714274722 10.35714285494433 0
19.87499999981069 9.999999996213674 0
19.85714285679789 9.642857135957803 0
19.83928571385784 9.2857142771567 0
19.82142857094275 8.92857141885494 0
19.80357142811986 8.571428562397289 0
19.78571428518957 8.214285703791473 0
19.76785714222912 7.85714284458249 0
19.74999999927616 7.499999985523064 0
19.73214285649986 7.142857129997356 0
19.71428571378 6.785714275600116 0
19.69642857096893 6.42857141937854 0
19.67857142816632 6.071428563326299 0
19.66071428530542 5.714285706108507 0
19.64285714248335 5.357142849666927 0
19.62499999965938 4.999999993187642 0
19.60714285683545 4.642857136708982 0
19.58928571409201 4.285714281840209 0
19.57142857126215 3.928571425242887 0
19.55357142848666 3.571428569733251 0
19.53571428567042 3.214285713408467 0
19.51785714289288 2.857142857857421 0
19.85294117629201 2.5 0
20.20588235487999 2.5 0
20.55882352693214 2.5 0
20.91176470067818 2.5 0
21.26470587509772 2.5 0
21.61764704895601 2.5 0
21.97058822759501 2.5 0
22.32352940747382 2.5 0
22.67647058455666 2.5 0
23.02941176067775 2.5 0
23.38235293441871 2.5 0
23.73529410473613 2.5 0
24.08823527892097 2.5 0
24.44117645565941 2.5 0
24.79411763635966 2.5 0
25.14705881820279 2.5 0
25.48958333332585 2.864583333595161 0
25.47916666664597 3.229166667390891 0
25.46874999996687 3.593750001159383 0
25.45833333328636 3.958333334977398 0
25.447916666602 4.322916668929952 0
25.43749999991316 4.687500003039327 0
25.42708333324472 5.052083336434745 0
25.4166666665751 5.416666669871431 0
25.4062499998852 5.78125000401795 0
25.39583333321691 6.145833337408416 0
25.38541666653144 6.510416671399764 0
25.37499999984903 6.875000005283809 0
25.36458333316022 7.239583339392362 0
25.35416666645721 7.604166673997792 0
25.34374999977512 7.968750007870696 0
25.33333333308926 8.333333341876074 0
25.32291666640567 8.697916675801387 0
25.31249999972474 9.062500009634261 0
25.30208333305578 9.42708334304784 0
25.29166666633597 9.791666678240944 0
25.281249999644 10.1562500124601 0
25.27083333292552 10.52083334760698 0
25.26041666625816 10.88541668096443 0
25.24999999957175 11.25000001498879 0
25.23958333293401 11.61458334730956 0
25.22916666630316 11.97916667938932 0
25.21874999963477 12.34375001278308 0
25.20833333300986 12.70833334465483 0
25.19791666636482 13.07291667723147 0
25.18749999970019 13.43750001049318 0
25.17708333305312 13.8020833431408 0
25.16666666648339 14.16666667308115 0
25.15624999988681 14.53125000396162 0
25.14583333327724 14.89583333529646 0
25.13541666672773 15.26041666452946 0
25.12500000013395 15.62499999531171 0
25.11458333346292 15.9895833287975 0
25.10416666681642 16.35416666142532 0
25.09375000019333 16.71874999323352 0
25.08333333356111 17.08333332536115 0
25.07291666688319 17.44791665908837 0
25.06250000021687 17.8124999924095 0
25.05208333355612 18.17708332553584 0
25.04166666690528 18.54166665831552 0
25.03125000016995 18.90624999405174 0
25.0208333334352 19.27083332976814 0
25.01041666669018 19.63541666584358 0
24.65909090697006 20.11363636434331 0
24.31818181387862 20.22727272870713 0
23.97727272112545 20.34090909295818 0
23.63636362933978 20.45454545688674 0
23.29545454074166 20.56818181975278 0
22.95454545175678 20.68181818274774 0
22.61363635870555 20.79545454709815 0
22.27272726938004 20.90909091020665 0
21.93181817642107 21.02272727452631 0
21.59090908415283 21.13636363861572 0
21.24999999070893 21.25000000309703 0
20.909090898365 21.36363636721167 0
20.5681818062032 21.4772727312656 0
20.22727271532826 21.59090909489058 0
19.88636362288735 21.70454545903755 0
19.54545453222531 21.81818182259157 0
19.20454544067146 21.93181818644285 0
18.86363634917439 22.0454545502752 0
18.52272726008306 22.15909091330565 0
18.18181816691119 22.27272727769627 0
17.84090907624678 22.38636364125107 0
17.49999998161302 22.500000006129 0
17.15909089129634 22.61363636956789 0
16.81818180107666 22.72727273297446 0
16.47727271035784 22.84090909654739 0
16.13636362113641 22.9545454596212 0
15.79545453028867 23.06818182323711 0
15.4545454400335 23.18181818665549 0
15.11363634812483 23.29545455062506 0
14.77272725866684 23.40909091377772 0
14.43181816866006 23.52272727711332 0
14.09090907805834 23.63636364064723 0
13.74999998745307 23.75000000418231 0
13.40909089754563 23.86363636748479 0
13.06818180839043 23.97727273053652 0
12.72727271853859 24.09090909382047 0
12.38636362812021 24.20454545729326 0
12.04545453791708 24.31818182069431 0
11.70454544876188 24.43181818374604 0
11.36363635991656 24.54545454669448 0
11.02272727049761 24.65909090983413 0
10.68181818161208 24.77272727279597 0
10.34090909059876 24.88636363646708 0
12.86460193220061 5.364601935898014 0
12.13539806564783 5.364601933746452 0
12.13539806779939 4.635398064101986 0
12.86460193435217 4.635398066253548 0
22.86460193304701 5.364601935051613 0
22.13539806478868 5.364601932887309 0
22.13539806695299 4.635398064948387 0
22.86460193521132 4.635398067112691 0
12.86460193226812 21.86460193583051 0
12.13539806566697 21.86460193376559 0
12.13539806773188 21.13539806416949 0
12.86460193433303 21.13539806623441 0
22.86460193292542 17.86460193517321 0
22.13539806482679 17.86460193292542 0
22.13539806707458 17.13539806482679 0
22.86460193517321 17.13539806707458 0
13.0357142863834 15.5 0
13.57142857334916 15.5 0
[...]
CELL_DATA 4392
SCALARS Von_Mises float 1
LOOKUP_TABLE default
16283468.293964189 21560298.732682344 12772627.433421789 32043645.310460445 34712047.37090786 14066210.41019565 22286860.363549747 26975177.998292558 6467150.516055784 47450419.74613418 35142033.02208398 11944179.5141093 21178502.23304557 62729189.10196323 20053877.952122178 18105745.349182364 44508738.238697425 44832615.130520925 22186619.99717607 2571712.410899527 20990211.17116099 21915425.628406055 32342432.072344564 22078540.2238819 28899702.846351776 9795968.338871835 32011600.686282393 31331810.24268975 13504039.014221713 33527259.06444892 779821.6631901388 29573996.87616805 22605068.704018347 636274.6914272608 36013619.88897572 19578473.717874523 8087686.978073452 27557086.181978345 25784885.94210784 35072261.72780247 29971847.97537438 31457389.517040014 30856508.4686272 31739043.550066974 42039830.71346194 34248030.713450454 1218716.3527500713 31746236.224231176 13229060.10276455 41054049.01278792 4764501.320852843 17417865.25954885 33801177.32565237 10241005.164833179 14665603.481218982 21835056.980319735 55691183.641734816 17217650.14635026 14842301.562357444 24310406.282536272 26293181.713119037 24040044.353950128 3752727.409005468 9956032.343428653 8680301.374954974 12067187.161802102 35703705.398196295 31010694.679108966 16003306.87178513 80808442.88842058 24308859.38366904 16909589.58465331 36000209.35047534 46127654.83027976 14891702.437728873 15676557.965511326 7282180.023646154 10931922.14347081 11030639.05540542 30148460.98338115 34701721.539278 8132231.562268838 3268431.583046631 28425550.759091537 31639858.919452246 29886535.080889445 16281623.080967022 12744142.089920714 29859264.161862068 30251735.344773445 33901784.25883538 26465854.658370975 32364948.06482928 30143374.06505732 22481169.39402826 24435729.86921339 37026171.58922689 13797065.121340316 20201529.494852595 21416266.10070494 31813032.887717664 5660837.99591333 33114788.473189637 16075435.088674683 29591659.270903733 40402571.064853765 12317992.045168431 4402912.079401193 34962606.65496853 22721405.51967839 32356550.29229593 16543669.188481322 33594832.366126895 33942159.38609835 29711422.090133764 21453236.95775033 23346605.915296447 2283201.6827470623 27459700.282547925 30061688.447124366 28714163.916135438 35077003.87510652 63561762.22087098 30796674.62358268 28736946.510773603 29292782.32936325 30617899.193343617 17907282.238815647 34301794.328708135 27624924.12152221 36472967.63217343 29460742.649094842 38201991.311635196 15277413.814536132 35905261.517804965 29961034.492230374 24853053.65078154 19893564.61003251 29163884.48611232 42303394.09684443 24535601.85847685 18397156.527602468 6094320.016283199 33405868.40760699 12495113.347061202 24917880.274903387 4841040.844977746 3751988.000247369 29697872.080046926 29010608.274555393 24198884.489886113 14945309.786139712 29603381.865919184 22133107.937763926 26879329.10869465 25394033.502173495 14989066.854655666 4219632.054427476 43265857.14753561 35858720.96078891 24222178.60991391 9953185.24039313 35531092.149563506 31121795.231754523 30374733.495744403 25311772.465836436 23142189.085565593 33756370.629882865 26203387.8778827 10029024.219573637 33194713.46528361 27294067.519778512 28902409.062115893 1626441.337556496 22955337.25817819 34525292.40816683 31114298.92556568 26689601.358731255 13308482.031849455 16076411.29238689 25936415.6451017 44147780.859829545 13116066.093158018 13273608.77047648 29653198.31642275 37355876.545826495 12653540.694634827 14315814.166754194 28971366.16489756 39366804.807007186 2037512.2869467023 8107004.033165972 8105662.058211007 18603867.445101824 29090277.5661685 29124000.07614497 4950227.601870107 325941.1861160234 2482122.265841588 40152502.26000504 28215937.50598652 3028820.385313879 42801872.753480665 28027732.87207442 15223927.048684783 8061930.639401821 29966695.681896746 27509261.86992638 24075952.627069317 19298753.111032523 31659412.546470884 469722.71824788966 23246255.65639515 1953620.9469954453 28327242.776530232 30391956.589015324 30534537.680462964 10300321.894476328 33424874.258627616 5923534.332476642 23856103.89526967 32927189.445965886 30674935.608728338 5113295.517219487 4806197.61719068 19861130.38205657 30846645.644919313 23929582.997338414 32452348.9754297 30868286.063234843 19720712.093446936 29392554.46361118 32132990.719654024 3379814.3875564407 26812548.8198238 29882029.47428623 57139007.98071647 15953002.288551765 3911867.968580382 6617009.634496845 4018046.493626767 28726713.31569804 34711939.56465061 33908190.85945849 28057225.416909717 33205310.200443394 56283082.23512499 7590165.238775921 30735896.74766292 22203592.64952995 32395645.237507954 31188602.062617995 18995490.911188517 15309645.097313017 4370888.7388536595 25284833.4174381 11063227.033841455 31875408.581598647 26894735.923932742 28504653.486154817 26219641.822258167 27962704.042775676 4098847.43028438 19872481.274517205 14988326.859978411 5058177.578460031 1855363.1882604584 24829223.266716566 26743962.4119836 13440040.540426925 24339237.37345595 32922739.121995375 27129218.02670176 29391965.852881216 33127578.67104742 9205635.38310383 32512071.907791242 21117246.45586978 39120510.24669864 8471321.84427478 33445077.97668885 24456556.827684175 2850335.8106881077 27913198.52487842 15653239.296305906 3296144.540127878 21316385.308748644 3881628.7901263237 1902003.2826980618 28286446.568868805 10935757.441429017 5730195.802189995 8508993.934800768 31068121.5797246 33874513.33837242 28059301.432818156 36950459.867811255 1260193.6462355482 23694422.717732176 8534446.095865 8258379.659750447 31636225.08007721 11984454.778209882 23360502.385889366 33325626.467046242 19410809.63513393 10342828.24233097 28356428.465831492 30389060.944462415 7560786.0244060615 9987712.409482261 3035161.6360465623 9281919.843768205 35710412.31005276 32268966.655434757 29162758.91599163 33920723.231980905 36174699.99448863 10469739.017642146 63636900.567934595 35431738.151440516 41881405.24526425 21480376.30202655 27783290.811384093 35940575.85498209 25104458.11830812 32375469.802716535 25109244.662308604 30098812.665790807 24103743.87368293 3915804.9515858046 22518194.355716612 16591555.195146319 30691558.328639094 26033736.418591063 28444616.707299553 22660072.03974322 21821671.77745964 29865618.031225096 4644333.3794035185 19861058.73413703 30662384.413157817 8074045.759675465 15466736.121531542 28579784.846994776 29867234.997394383 39137349.76893987 39772535.74786551 30781271.833334032 30422690.79974296 24118302.328429025 28471745.081949722 20448865.454971544 30661388.459273692 21837765.05060441 11449197.914407631 12986789.29708066 30041743.133411303 32387853.14148027 15743109.163323628 1951851.0975918293 29489969.041910462 7635182.128372955 23942497.86060393 40683803.69866738 24605357.723482944 3887851.192934666 3928285.9071845976 6835602.453277482 39363725.89033123 40673092.90879641 10714365.970058488 28079779.638935443 16548772.349176861 15808187.118552221 30290426.94761502 12024967.505612189 23840280.929635067 29134963.695491232 31884832.01158558 84906301.3472734 37239212.78140293 24712885.47872808 3863618.2190151094 40304857.16057563 30181079.818144783 6879320.449326809 17691446.937219452 28395676.11723671 3913779.5693607554 20352637.300461546 14584380.581144731 32443701.66040735 27875816.538519815 13156169.794607237 25307800.935037877 48960988.53304759 30631865.03281511 32165586.87555857 20681480.79308349 8427038.628838597 13118240.471271146 6174062.752155148 22649086.17758334 9087356.476649264 32473048.20807049 28720487.48944933 32132543.632342435 20912312.151300214 18734507.400098402 23460655.39598839 6488619.113374678 24044599.37953661 29034974.206665795 1605551.1686457973 33395803.768446423 11000912.477797829 26455144.564325415 32574811.14297575 21131502.57170338 28267685.937254164 20375666.082673877 14219736.409822976 33090163.65855668 30549779.064233962 8891848.247840557 56429047.229053356 32365652.335688304 4550315.341677449 30496741.489261843 18604291.55860916 15163731.613501528 22432373.53694944 17722651.414691187 2907224.3176854067 2926692.85659686 28997577.991312392 29552884.423066586 28809984.751264613 3138076.9728424754 12629152.196079347 32215022.584972635 30853976.95810317 1666839.424837609 1663846.8176082608 31062719.91184725 32150305.557463743 15287607.171807408 19089344.79963975 45821654.599802464 23503878.543832008 18269883.665910464 1558292.591436263 1561800.9466689357 31074245.93642997 21550891.849501517 10369041.052956054 22327671.67544255 23313808.559892252 58419705.593888365 15308703.680581035 9949218.112196965 12690452.33444551 30542868.28113152 11324989.467181731 20592986.282410786 42304954.87382078 1101085.138552391 1099346.1230255 1613251.6499581048 23724905.426319603 11334077.683863895 17656460.791463748 12805244.78556294 28904055.22199286 29870512.820167284 2843692.5230551744 10190413.864673803 10677680.877494358 2028557.8964083104 20987281.271969736 13465962.6576286 31325565.15265038 9161325.801436773 26984896.62471474 2175610.0182437645 25062937.079068154 21077490.837534405 4605081.182783703 30876789.550677776 9510318.955193339 10220631.020911558 28494547.088916093 7201791.923457971 19709328.61447888 11994598.741502898 7034106.974324987 23263383.901357353 29598603.059527375 32677513.136281334 7060082.150989905 30309195.02319842 56482674.721956834 3708462.248993264 35385516.91440606 14998835.009589197 31719395.427498944 461689.7984764096 19973593.04609956 30060409.735353522 25989901.58386565 19195349.70013085 10671237.113527523 15407230.750004252 10028909.448219351 21890399.33476641 1798093.798004043 3163900.7792133754 1155280.7548305173 50129099.427647576 20399341.247125845 34163694.01539809 24871219.184419263 10025872.088934671 10025872.088934671 24751899.308453325 6656603.659456116 20344457.45187689 32971350.80094621 26687533.20414029 15356422.00191098 11692710.99428204 4026156.770544412 27959304.969970472 24260066.352011904 38733145.78325459 27730220.902436346 32320052.876394115 13005906.343928441 3134221.221515131 21824754.065916978 9600843.531806273 22426837.335347027 22927706.508241065 35231789.94224191 28588310.33752132 33303849.53914972 1390427.6726203586 29965872.45042505 48800346.81928021 30242485.013146464 25028411.581576325 24984467.152492926 13442498.88071452 35691958.596482426 4530968.241505278 30088539.318655215 76262505.33694866 41421822.78825018 30427748.775166098 3728516.9069744954 8572419.765160473 43680716.076944426 21190961.55943927 28629326.6640674 7495517.038828325 11902269.89648933 18569918.53059067 27973634.421864137 19777294.129331186 4523564.190317096 38616990.41091626 22348024.26030821 42036096.807747886 5947393.488663998 42723465.28889737 25717048.15565845 28984851.06306826 46677809.05866137 28547305.03823094 42494785.40733696 37413141.844427295 8700042.924620926 28010692.22566771 30617789.528368022 31220872.225210197 30828229.28078127 1431363.495089653 51250918.663286805 37556132.989146695 25737383.440549724 62386209.29107487 10115876.49422904 31412462.36327893 23907805.96452906 8371897.255534236 16160778.832835646 34216087.56344308 27994459.627589546 71276681.79695913 22171905.616034497 28856839.85354085 4329835.252240967 35814930.17341753 6272163.231115533 10504405.631585224 29214872.81000539 30618482.333959926 15715180.895620199 5003807.582426542 41803987.85214341 17461507.814652532 12285815.938043341 53413135.21165167 29043154.19949956 9545532.192056542 31257550.050676703 37575821.06738948 38535831.93713933 17035133.337049447 5714361.493683308 37796839.57459522 30760418.73666966 30982306.397829514 16344965.840323104 27413661.203426007 24387435.96201064 22084038.36564321 43724061.23016981 42026444.73915582 13052145.683087772 27217058.714518454 16084634.72957965 17856673.66007781 26512404.623162586 14399176.765822234 78405338.75104935 18243495.666286573 11091917.36824123 29036860.491583906 9965193.114055725 6854066.294713554 33704123.7814709 22256371.53837259 66091951.24392046 25099164.158263046 33723536.83302184 20167484.65062809 25000452.7006157 30828797.903094705 25551016.944511723 157790417.53666797 21692521.093122642 75616753.10362323 28347694.07572152 7782504.815272329 27941495.521450743 28586203.993222535 16705793.540882735 25997769.672579814 77582781.19969966 12188853.96676966 23736567.161540825 17005219.738863833 29768410.529878344 23850026.98932749 38422530.69883258 16878681.60690454 22846286.121943004 22238456.23310853 624156.2865168032 43009366.70233773 26976634.855131324 24664460.677474722 1989874.200143063 5946192.999046765 14780359.313326389 49964405.28148339 21729535.71359781 26199069.339229863 28285091.926276147 26166950.66365711 16456651.940815656 16443143.325744966 5862217.446417526 11464787.728077324 26104339.427533906 11781272.454532761 4031464.394591458 27903753.422459766 25093780.6467633 13029155.073813174 7920891.202681996 33296035.119130243 21512699.222448565 27995152.26033776 29591189.27037847 3265722.668100411 36886183.11590085 24237778.77380714 33837935.904770635 1280446.3661530812 28879136.308691237 39833287.36327737 29422211.177989677 24326607.903986644 16518600.144215759 35532259.00733888 11192241.190877305 22374583.465089682 20612674.50293778 47635362.89990082 27777034.946258478 24439991.32210167 32471841.200451825 10007442.665004786 31693729.008256715 24097911.45347583 30157323.53028773 29892957.758474886 31878657.736790325 26573966.130644307 21443883.233491056 30269867.874801435 4563424.728075815 30730604.814037483 27143284.924769748 24846578.58198807 20888691.576305795 15149479.398350755 29565861.041194323 30120590.45699033 12081868.296658592 35991874.46773095 29132005.372414477 15980762.475239411 3463103.6035533524 26592135.004233252 4936564.443546261 28851697.95427598 70059510.40484749 18603713.8157629 29908966.14880333 28842576.73664112 12018878.953117749 19522599.054665036 35209792.00326832 31001499.16392166 25287818.531081688 30841095.441426586 23956153.203711517 29266272.500030756 22078025.535993233 15242567.12464475 3488803.472751661 37287143.5339167 19238010.82224869 28610238.082073104 15788168.359965282 29257503.27920383 34575895.85523207 3366592.325895007 31203317.031886924 3072175.7561010635 30115578.325827904 3434038.9934813986 43809403.99161801 29683910.736910317 38937559.22918124 26994998.497371398 5141901.100474121 26671418.981258813 26278914.138907913 5390610.347031406 17329242.012742706 23246019.701144107 22864261.21252574 27927518.994821157 30038497.284901988 27040328.77343316 24038666.609960422 6723589.270738994 7660331.290018602 32018436.046604965 31382466.845705148 27837905.372944422 17340120.079122048 29697162.256090842 5774296.50563374 14896526.841973653 30527043.7370393 3064977.6129206214 5860283.625496962 35561404.77122593 12958543.859618539 29066654.544443842 27759943.584121447 14186485.686857216 34760434.859468825 29240999.348130897 30476939.03528134 24284039.33685012 28960168.715742104 36240237.30567131 30246618.464929223 28776645.61605448 5533860.149743365 30413487.107477423 31054027.251102995 30439078.46519316 30898521.114728797 2874602.966634529 31329771.51414084 21274201.212107453 6164281.1123132855 5096981.550159583 24118057.274286028 30146713.989242572 20377568.172294788 26948346.82668755 28149027.858144652 38131866.3945404 37268877.9533559 30928062.59006415 31886502.284284104 31435903.742472947 20008227.417201705 16336774.13717882 5681637.144366793 31270531.239592075 1730675.4199350395 30275843.943511833 32822877.799174927 10953530.862709109 18667148.046996012 1479306.6911828977 22332743.94522591 4017787.065680007 16495570.98367806 35794257.04929618 21346143.48723886 16120300.720219946 12505365.314782515 11563842.30014145 16569210.14216595 31698077.366046555 40835944.61697452 12031872.63466242 15428865.383416062 30099679.514236502 49591920.39648783 32615314.192546327 35008557.71761446 24893111.081427205 461929.52757780167 7777551.510084319 26859478.061392464 10048966.741848884 3479487.141715501 6018352.800747384 25614499.913892843 14398230.917011132 5812890.170467814 29494794.184738696 17630520.895054333 25358425.10692444 31493714.9103435 25049126.050658036 26521512.648873113 42943487.9681867 26296417.996298384 28309868.184227422 6138702.132744844 25541624.736176204 28949762.597056005 5850997.013208418 20051462.496109504 30096598.493298873 5801542.9040810885 27892220.24927671 25137649.969009377 11789129.968670867 4440970.957704522 6947439.128262001 33676386.859512314 30803250.17681985 24524026.571410466 1223127.091143682 23924412.087863132 20512388.740386326 19182064.92651063 25854985.831671625 20117894.08152473 33435864.23270261 12334572.430318289 29800788.420666657 27568015.05370937 5267147.038865197 5064428.545051014 30460452.560582917 28692576.88612405 20705740.82147306 30629879.971931797 39820726.954715975 1439917.880307468 36655158.98026409 1210834.3617096115 27722949.941819247 6599340.090375787 4176585.2463060287 1078986.4604572009 8348401.9634065805 14316323.724644253 12427562.424150186 23287321.473719534 24000365.403635446 23761062.958687462 25263129.312204104 6058116.011233454 31880289.119076155 19660945.71805222 8524249.297941359 27395435.641934875 17767913.048656665 27072216.536531225 34585978.33914563 10538797.915384093 9210911.094243497 22392426.41762948 16356347.208635332 63852733.05702073 1721908.0155568516 26757496.284563176 25303785.22342367 27513873.54622086 27969078.08703612 77720876.86517732 14120939.740456909 25440321.28171927 25881188.39102452 2015430.3152761646 6290411.257200812 30963383.68598967 31374789.743798 54205464.93399816 34644342.799456805 15873201.278132105 130339697.9685687 14644502.620948587 30332668.835321765 28391381.50338125 27478694.713560093 3083666.507525395 29328968.11828721 30142496.17148061 9015347.534470908 9239865.416016812 15677225.384625982 25326704.470615096 6729097.107750431 10800223.665562732 33671017.48925705 15200475.688552763 14554624.865484307 19081856.239588782 27422656.57264172 26284535.40826066 30082615.7354154 88720011.17529988 17771566.552943997 26626662.981831927 51889543.057066984 58301177.290247284 7957823.473020124 8486056.245596187 29610446.63099989 29011356.503281508 33257801.007578343 17922734.779131193 31144297.30397997 28737737.528867796 15368977.990419973 30843263.24782361 24031284.535111677 28312088.706595853 27777891.33106755 30783923.754004326 33313513.584202647 8579471.923805824 10367747.609995129 1067035.914346798 8489805.734891055 32763671.39443249 29539422.877903152 6534892.49540544 8698289.093310574 24728231.72787588 7313242.550757381 46627573.110203445 28812813.088770427 31062094.782087833 35128507.42691769 19831206.04584128 32138942.50060194 59303484.52501505 11814596.36852895 28060317.111654714 3571781.555484189 4162568.758949373 15033653.711677969 9062555.24157276 25596958.45866562 27970367.728439976 28577043.78853368 25293838.69684763 4800077.734093577 12319918.068358814 27102859.145658813 12215455.553077985 6394663.648174149 13391172.770235578 29035166.214702718 13696200.421387397 8358391.110305924 21479033.276499122 28715383.1303931 38966447.84575271 18439148.667915348 14245765.871838197 1864769.8139606046 27301749.876415968 27438034.431290966 21527551.330840673 15350774.846038694 27320815.40094624 24904564.239581387 30049497.552330874 1880535.9712990802 1997493.7546566378 32083807.068134487 6747270.657932694 30305036.4790741 33340468.442819666 40123007.31124368 24251478.185088813 37350036.54287194 6121390.06191517 16746953.985655615 27216493.281268965 11187201.249742914 32333198.73696168 18556575.768636364 32953728.778707366 50065080.00796734 17147559.220969263 28406742.255719896 90975414.86039285 18840007.24225864 17127632.63021052 31888016.66468031 10487670.762853075 24825845.531294614 29620103.57182168 14160671.907112572 31925158.3943628 19916080.032026682 11483473.74704734 22710459.091417287 1846434.3865731368 24706259.52656631 32134004.324137732 3649210.2780158324 15315639.972552177 59743219.44855029 22966137.123234164 14458054.37226906 14260018.471730687 14266792.009710664 24058830.148088