# vtk DataFile Version 2.0
Really cool data
ASCII
DATASET POLYDATA
POINTS 2535 float
10.0 25.0 0
10.25 2.5 0
14.75 2.5 0
15.0 12.5 0
20.0 12.5 0
20.25 2.5 0
24.75 2.5 0
25.0 20.0 0
12.8125 5.0 0
12.5 5.3125 0
12.1875 5.0 0
12.5 4.6875 0
22.8125 5.0 0
22.5 5.3125 0
22.1875 5.0 0
22.5 4.6875 0
12.8125 21.5 0
12.5 21.8125 0
12.1875 21.5 0
12.5 21.1875 0
22.8125 17.5 0
22.5 17.8125 0
22.1875 17.5 0
22.5 17.1875 0
12.5 15.5 0
20.0 15.5 0
20.0 14.5 0
12.5 14.5 0
10.00403225807093 24.63709677361622 0
10.0080645161563 24.27419354593253 0
10.01209677424696 23.91129031777318 0
10.01612903230577 23.54838709248107 0
10.02016129035602 23.18548386795797 0
10.02419354841103 22.82258064300752 0
10.02822580648097 22.4596774167125 0
10.03225806456681 22.09677418898731 0
10.03629032266798 21.73387095988129 0
10.04032258075012 21.37096773248903 0
10.04435483879861 21.00806450812494 0
10.04838709688005 20.64516128079578 0
10.05241935495465 20.28225805408125 0
10.05645161303756 19.91935482661994 0
10.06048387112473 19.55645159877427 0
10.0645161292065 19.19354837141498 0
10.06854838727757 18.83064514501887 0
10.07258064536606 18.46774191705492 0
10.0766129034346 18.10483869088549 0
10.08064516151669 17.74193546349787 0
10.0846774195907 17.37903223683728 0
10.08870967767305 17.01612900942542 0
10.09274193573161 16.65322578415481 0
10.09677419381719 16.29032255645265 0
10.10080645190677 15.92741932839017 0
10.10483870998482 15.56451610136578 0
10.10887096806891 15.20161287379791 0
10.11290322615036 14.83870964646787 0
10.11693548422069 14.47580642013797 0
10.12096774229187 14.11290319373216 0
10.12500000036691 13.74999996697819 0
10.12903225842383 13.3870967418552 0
10.13306451647886 13.02419351690233 0
10.13709677451437 12.6612902937063 0
10.14112903255518 12.29838707003324 0
10.14516129060447 11.93548384559769 0
10.14919354865313 11.57258062121796 0
10.15322580671374 11.20967739576328 0
10.15725806477384 10.84677417035441 0
10.16129032281338 10.48387094679534 0
10.16532258087472 10.12096772127496 0
10.16935483892187 9.758064497031445 0
10.1733870969857 9.395161271286613 0
10.17741935503843 9.032258046541457 0
10.18145161308684 8.669354822183982 0
10.18548387114214 8.306451597207326 0
10.18951612919923 7.943548372069355 0
10.19354838725904 7.58064514668658 0
10.19758064530033 7.217741922969729 0
10.20161290333043 6.854838700261147 0
10.20564516138313 6.491935475518151 0
10.20967741944725 6.129032249747367 0
10.21370967750003 5.766129024997362 0
10.21774193554038 5.403225801366053 0
10.221774193581 5.04032257770997 0
10.22580645163059 4.67741935324665 0
10.22983870969496 4.314516127453131 0
10.23387096776351 3.951612901284103 0
10.23790322580145 3.588709677869551 0
10.24193548386297 3.225806452332522 0
10.24596774192589 2.862903226669555 0
10.59615384879596 2.5 0
10.94230769598397 2.5 0
11.28846153932223 2.5 0
11.63461538477885 2.5 0
11.98076923215367 2.5 0
12.32692308114312 2.5 0
12.67307692536209 2.5 0
13.01923077070862 2.5 0
13.36538461224543 2.5 0
13.71153845566042 2.5 0
14.05769230141394 2.5 0
14.40384615085709 2.5 0
14.75892857144616 2.85714285784649 0
14.76785714288078 3.21428571523109 0
14.77678571432 3.571428572800198 0
14.7857142857668 3.928571430672074 0
14.79464285720148 4.28571428805915 0
14.80357142863987 4.642857145594823 0
14.81250000006625 5.000000002650031 0
14.82142857153606 5.357142861442594 0
14.83035714299431 5.714285719772646 0
14.83928571446538 6.071428578615361 0
14.84821428592949 6.428571437179454 0
14.85714285740048 6.785714296019075 0
14.86607142885319 7.142857154127467 0
14.87500000027791 7.500000011116425 0
14.88392857167472 7.857142866989042 0
14.89285714308988 8.214285723595362 0
14.90178571450818 8.57142858032706 0
14.91071428590076 8.928571436030644 0
14.91964285725977 9.285714290390665 0
14.92857142864635 9.642857145854018 0
14.93750000005199 10.00000000207956 0
14.94642857145045 10.3571428580178 0
14.95535714287157 10.71428571486281 0
14.96428571429883 11.07142857195331 0
14.97321428570877 11.42857142835066 0
14.98214285713628 11.78571428545122 0
14.99107142858074 12.1428571432296 0
15.3571428591223 12.5 0
15.71428571719138 12.5 0
16.07142857423201 12.5 0
16.42857142974857 12.5 0
16.7857142846084 12.5 0
17.14285714112862 12.5 0
17.49999999772317 12.5 0
17.85714285297952 12.5 0
18.21428571083795 12.5 0
18.57142855939082 12.5 0
18.92857141386655 12.5 0
19.28571427430228 12.5 0
19.64285713574168 12.5 0
20.00892857145444 12.14285714182253 0
20.01785714288121 11.78571428475149 0
20.02678571430391 11.42857142784392 0
20.03571428575173 11.07142856993083 0
20.04464285716307 10.71428571347709 0
20.05357142862058 10.35714285517672 0
20.06250000009985 9.999999996006125 0
20.07142857160473 9.642857135810823 0
20.08035714307449 9.285714277020388 0
20.0892857145293 8.92857141882806 0
20.09821428593644 8.571428562542428 0
20.10714285739586 8.214285704165588 0
20.11607142887573 7.857142844970847 0
20.12500000035236 7.499999985905506 0
20.13392857174129 7.142857130348313 0
20.14285714310267 6.785714275893214 0
20.15178571450528 6.428571419788685 0
20.16071428590087 6.071428563965252 0
20.16964285732718 5.714285706912793 0
20.17857142873676 5.357142850529643 0
20.18750000014888 4.999999994044952 0
20.1964285715605 4.642857137580068 0
20.20535714293256 4.285714282697754 0
20.21428571435444 3.928571425822371 0
20.22321428574628 3.571428570148774 0
20.23214285715693 3.214285713722903 0
20.24107142855655 2.857142857737868 0
20.596153845103 2.5 0
20.94230769181397 2.5 0
21.28846153698369 2.5 0
21.63461538161964 2.5 0
21.98076922946485 2.5 0
22.32692307653609 2.5 0
22.67307692028468 2.5 0
23.01923076562454 2.5 0
23.36538460449588 2.5 0
23.71153845024273 2.5 0
24.05769229413811 2.5 0
24.40384614838844 2.5 0
24.75520833333718 2.86458333360238 0
24.76041666667798 3.229166667458308 0
24.7656250000173 3.593750001211001 0
24.77083333335809 3.958333335066103 0
24.77604166670141 4.322916669098772 0
24.78125000004511 4.68750000315787 0
24.78645833337953 5.052083336566992 0
24.79166666671298 5.416666669908391 0
24.79687500005813 5.781250004069072 0
24.80208333339111 6.145833337377437 0
24.80729166673437 6.510416671405975 0
24.81250000007497 6.875000005247864 0
24.81770833342114 7.239583339479573 0
24.82291666677311 7.60416667411762 0
24.82812500011363 7.96875000795414 0
24.83333333345632 8.333333341942213 0
24.8385416667967 8.697916675769235 0
24.8437500001361 9.062500009526882 0
24.84895833347101 9.427083342970692 0
24.85416666683082 9.791666678157132 0
24.85937500017594 10.15625001231616 0
24.86458333353615 10.52083334753068 0
24.86979166687154 10.88541668100752 0
24.8750000002114 11.25000001479821 0
24.88020833353079 11.61458334715515 0
24.8854166668455 11.97916667918503 0
24.89062500018088 12.34375001266188 0
24.8958333334951 12.70833334465707 0
24.90104166681805 13.07291667726343 0
24.90625000014924 13.43750001044626 0
24.91145833347969 13.80208334357788 0
24.91666666677206 14.16666667404435 0
24.92187500007075 14.53125000495268 0
24.92708333337507 14.89583333625455 0
24.93229166665025 15.2604166655177 0
24.93749999993438 15.62499999540688 0
24.94270833326972 15.98958332888 0
24.9479166665939 16.35416666157307 0
24.95312499989663 16.71874999276385 0
24.95833333321826 17.08333332527833 0
24.96354166655782 17.44791665904754 0
24.9687499998933 17.81249999253098 0
24.97395833322337 18.17708332563618 0
24.97916666655323 18.54166665872609 0
24.98437499992156 18.90624999450882 0
24.98958333327948 19.27083332956353 0
24.9947916666537 19.63541666575921 0
24.65909090697006 20.11363636434331 0
24.31818181387862 20.22727272870713 0
23.97727272112545 20.34090909295818 0
23.63636362933978 20.45454545688674 0
23.29545454074166 20.56818181975278 0
22.95454545175678 20.68181818274774 0
22.61363635870555 20.79545454709815 0
22.27272726938004 20.90909091020665 0
21.93181817642107 21.02272727452631 0
21.59090908415283 21.13636363861572 0
21.24999999070893 21.25000000309703 0
20.909090898365 21.36363636721167 0
20.5681818062032 21.4772727312656 0
20.22727271532826 21.59090909489058 0
19.88636362288735 21.70454545903755 0
19.54545453222531 21.81818182259157 0
19.20454544067146 21.93181818644285 0
18.86363634917439 22.0454545502752 0
18.52272726008306 22.15909091330565 0
18.18181816691119 22.27272727769627 0
17.84090907624678 22.38636364125107 0
17.49999998161302 22.500000006129 0
17.15909089129634 22.61363636956789 0
16.81818180107666 22.72727273297446 0
16.47727271035784 22.84090909654739 0
16.13636362113641 22.9545454596212 0
15.79545453028867 23.06818182323711 0
15.4545454400335 23.18181818665549 0
15.11363634812483 23.29545455062506 0
14.77272725866684 23.40909091377772 0
14.43181816866006 23.52272727711332 0
14.09090907805834 23.63636364064723 0
13.74999998745307 23.75000000418231 0
13.40909089754563 23.86363636748479 0
13.06818180839043 23.97727273053652 0
12.72727271853859 24.09090909382047 0
12.38636362812021 24.20454545729326 0
12.04545453791708 24.31818182069431 0
11.70454544876188 24.43181818374604 0
11.36363635991656 24.54545454669448 0
11.02272727049761 24.65909090983413 0
10.68181818161208 24.77272727279597 0
10.34090909059876 24.88636363646708 0
12.7209708686998 5.220970869541787 0
12.27902913024896 5.220970868490556 0
12.2790291313002 4.779029130458213 0
12.72097086975104 4.779029131509444 0
22.72097086840513 5.220970869836465 0
22.27902913044831 5.220970868689902 0
22.27902913159487 4.779029130163535 0
22.72097086955169 4.779029131310098 0
12.72097086902355 21.72097086921805 0
12.27902913070156 21.72097086894315 0
12.27902913097645 21.27902913078195 0
12.72097086929844 21.27902913105685 0
22.7209708691208 17.72097086912079 0
22.27902913087921 17.7209708691208 0
22.2790291308792 17.27902913087921 0
22.72097086912079 17.2790291308792 0
13.0357142863834 15.5 0
13.57142857334916 15.5 0
14.10714285783675 15.5 0
14.64285714470339 15.5 0
15.17857143070267 15.5 0
15.71428571720997 15.5 0
16.25000000702564 15.5 0
16.78571428904744 15.5 0
17.32142857412979 15.5 0
17.8571428511085 15.5 0
18.39285713616606 15.5 0
18.92857142211578 15.5 0
[...]
CELL_DATA 4764
SCALARS Von_Mises float 1
LOOKUP_TABLE default
4891886.718245181 37234119.73129329 38755386.028971285 30508165.66124456 31491172.279258102 24669882.361891802 58353485.54011489 42253140.06819242 13590312.137158768 57697647.09211603 28862889.489584267 33549003.994388487 40173331.154079296 12034918.183437888 21477584.89197708 32663866.206366573 31629330.93961775 30616879.215721693 49280335.918766536 37409285.924533695 38132894.20841441 21931111.60970654 8585002.376038035 31157123.124540173 27172850.75056536 13804799.404382505 48549359.17004251 27947611.574403968 41315550.45405643 23854143.70493492 34735185.63850594 14834036.922001185 35210368.9568664 37257138.87608035 10052973.44494011 32187862.31995245 34608882.58975335 8968835.506808924 34708722.86777469 15614627.242412988 43639431.132813685 32636732.139533985 32969002.113260828 20896622.434581004 4371268.788803383 3658069.7250279225 52430629.394278295 35648259.07125874 35600112.02423793 34959266.658820145 15916907.650771389 32576803.580766376 35003656.60509223 37676980.99204221 29336718.905482862 32138476.868325293 35583316.45090907 30137204.423453055 29729799.71995121 42011327.854564674 32889237.514320817 29362089.754486084 35297127.70656571 46328846.25156551 264370.3833023318 31920591.714626838 30298173.532780558 10255162.396840887 35911375.21198713 26793996.911862116 32049273.493592106 1779721.6855398603 2202211.812477056 6759073.667887116 42251880.72776339 31178596.18570771 33080766.061360326 14866950.107439443 22778810.787397876 34607211.930073686 35515397.36772905 20700225.087952636 32459540.98676123 32318913.21494356 32187977.95732918 35017044.2482097 30983345.526037123 10014086.537492286 8850804.16508329 60772824.90009892 3623141.831111569 47842435.881905556 30424720.731059037 14850928.853096912 34617637.18025522 26445652.35203308 33056363.251555704 35138639.55505797 11690568.573279968 41126857.813651554 25059715.353671916 20745355.94060359 16969930.28941266 31811464.15720553 8523670.061028475 11426504.370684791 61721791.85438618 35527898.15445335 31891545.587270293 34372402.26540556 30165243.809528783 32998139.31772457 6955609.193998178 27474006.878078774 32142479.430541597 40169816.00871715 18079139.856391553 21450671.83696574 50271309.600038 23252723.37078541 23365258.227594618 62115103.7520862 253195.00137618423 20241354.13677059 9851411.55289611 23195526.454954915 60842631.28369589 15809111.930382665 34727685.38473035 18634603.731061205 39156306.207403265 30379647.076801043 30627945.731228013 32187616.044566434 31048343.904124636 32516203.199931573 36245649.36166219 30180884.49353257 2036684.330658698 28847100.537978005 23994925.46052059 8688883.39978217 33887149.078626566 25458395.090383776 42974144.970857784 42241149.36831176 30686258.818305496 32908010.587300982 1759686.6273472896 31253325.376103032 19585244.747434642 29855509.841033515 1673904.2906898898 22564283.770386364 38296044.9775613 1819134.781721982 34431311.5378243 74586.77477320202 33410404.605847143 48498949.651462086 7242171.684282821 29854710.645415056 1599457.837732522 4490667.901915847 33950386.32325274 6269836.802322683 76155415.92252819 32607857.662257195 15024042.613513658 25745414.473571926 15085701.420843083 35652336.0922409 25353342.30743616 34557458.47293829 10318237.272027746 18204392.142563842 13207166.69987253 23015019.144914284 32192395.70741778 42434326.45763034 36442462.719627015 8946939.333966145 20989240.288571093 22852587.69411859 21228505.901502658 25849825.80697437 11676834.658033311 35014250.82517619 31242482.06531522 10094147.341807172 31648876.07774754 33030440.298085086 17120459.546638012 70509888.15832928 35894958.5182559 39925206.88697822 24286772.571763504 17162825.958609834 14322012.32860428 16469683.625181692 21272127.79216282 1853760.747033795 25792723.723881565 20249632.793200128 22952117.462381758 9303484.605891304 1649478.5424641187 20371850.133211397 16619652.33655812 5652635.571370653 13204398.422263963 31713900.79516685 29195572.62598672 33082485.247479863 24667899.271707214 16559752.846624205 28979215.705007453 33896743.99090118 36827427.57797345 34126670.972015835 19807200.448073428 22826215.236165937 26814298.838629305 28081577.84417382 39219572.36943732 13724662.100537775 46690195.41291167 17218178.277665567 36481862.58131229 14984419.540877532 6538528.005152795 43291619.56037105 46426457.116655625 15156386.384471655 34057754.78183263 13911684.519785242 19064079.821818013 14658005.724879222 12006769.866933167 12411084.338730864 53877172.25515999 28090600.333205733 33543300.17914918 31957052.059677847 3839329.247414236 24185805.25317742 5164315.753360186 6905953.703964118 3412146.4854458333 21146017.683023173 2212114.95963911 2398143.9674000503 20809589.311328296 52417629.68860473 20324767.078435935 25108386.48785648 28678019.088694975 34490977.04036333 30896028.67287274 33158891.171570033 31620569.136944592 16346581.436559508 30747501.208612286 21238976.37047522 17105138.890443947 3164913.1989666345 29707635.720463358 28946422.43995852 35527627.45558839 34646187.977766834 25374729.430547785 40831441.811717 31874549.69974865 37182050.349629335 6026146.666672935 66513604.77297594 31836235.057568982 2276498.5001638597 32632689.704557016 37328755.97049839 33156558.49972666 19827784.975112326 3907311.600175139 15486296.97465944 34046812.55257848 26309396.395112626 89705844.50573406 68539400.10347936 6591839.182246834 3692526.5720715676 34367880.69476622 40561541.0688961 30976742.906409808 34937967.37826983 23404974.8621833 10293511.007246168 41919204.36217963 19408814.815704934 17771330.007181056 12777288.29905755 19898309.147793934 33343488.83125589 31985780.798157495 87746961.12720793 39850383.76756693 30946628.42040149 32883476.194729503 19055482.22578705 16655015.976049855 18353797.133495 9346682.665328035 34765682.91354579 15714342.228740588 31511620.130249444 33215107.315204002 32942697.13732829 9853238.798534721 6082842.188532536 34295637.44402868 11680622.560156086 26037817.83121096 10570469.325858358 8086844.531806324 14974191.829408059 26495770.93748244 35521063.86785196 33626652.05477732 30892104.270424273 43316443.55585265 5453941.132849725 16603193.449145824 3451997.8681526924 33921605.46549372 1415162.065922967 10208143.534446126 12981768.114742503 31294959.48376675 20945939.431007724 2301433.7976055657 13975401.454314778 17966164.849769592 30047540.607396763 27370995.8634971 33067999.413974114 31906968.54711552 32272878.069080055 20756804.420860004 31924694.136935964 15762512.055823661 28667432.74167177 4085509.6628407883 30870629.458156444 32905240.389641296 31460371.337853108 10055213.758760273 10642738.505150296 42295212.29821118 32002167.89519637 36447049.34693384 32624984.99311501 41835601.77880804 31739275.238049116 33379494.543246336 29834658.395517413 16636910.814158643 47131602.16754302 25920769.75967909 41225793.008601695 17959274.878797483 33832250.02175094 28436295.16578226 34810888.64605925 35584801.84082023 14377466.293494668 32414229.34557389 32304265.99337771 10070074.187816335 21070612.700437684 17825652.974341087 26387221.751994707 34281334.8882598 23639334.90907511 8790725.739551876 23598592.947556753 20156542.409334492 46365518.02111476 18479204.3718859 3769166.8376193964 21359894.793920733 16759392.177925818 18945763.222862165 14360544.461626573 4705741.687388326 27067067.04123002 1581125.6192267044 13149740.642282482 18418529.734085623 46795915.037379764 14556115.23593304 29108685.184849612 54908700.099206336 1901366.3242832131 34812215.901221626 20939653.4357081 30606228.212471776 34107273.16978729 10635731.751746697 34712914.773753956 22054937.01456795 2819733.456085115 22654882.066697706 7755940.067125726 29940657.47226074 20397269.488809362 31014374.723258033 30223947.02704005 37881379.74221777 17544675.803990033 25431895.8295366 29048307.407858606 30642083.575560976 23756513.256086506 32532194.43927616 35589862.357546695 30516036.800727546 17992588.455144525 2707385.4896314214 31462331.2474121 18929909.77332301 29984892.224469427 34739123.17295226 27391549.19915962 40015519.18501142 41515321.4201003 36125249.890770584 34686576.2755905 11422492.16878802 35029599.38772088 19500664.579494923 14011425.377022661 52853731.06778308 7867935.802542573 31078100.84194655 26646606.423791938 22140155.23811198 11446249.782279242 21024397.828010455 6473249.692644761 20097867.46911118 22178817.183190875 22878449.066964988 12971346.86957423 40795578.94044513 19581197.05440845 27727824.23863456 20637730.82634948 16109586.275308995 31979384.32732935 20763605.73238917 15476277.46160406 44818820.11655922 29596710.486169595 30785314.034973033 9818952.214076867 31879515.496905077 38971807.7382737 30888718.158590104 3024552.81452791 15579286.847135317 19557349.232331183 28726557.90546596 22957529.712803114 30174815.290030897 12701469.892319234 38255663.50538109 15214625.762642354 23306271.942726303 2074325.9647997464 36619308.47462243 73915702.00022495 31184273.30608051 15658170.764606304 24162029.468198862 78666689.82859488 6683584.319520607 14356811.77834037 30108599.302512318 15224840.507063735 6508153.704788887 53005310.255775794 13268910.891260931 4885034.142035827 14059933.940619713 10093954.236206522 30485636.43394497 25975443.910937622 38980317.77156778 30772273.500790693 39409073.69418025 16356633.082341071 7111932.113271313 16605239.980745755 36219643.17849102 37385269.32911051 33826002.43605992 13728836.792110072 30448511.83755351 69479644.656429 16061687.351618059 28202366.720612664 24129386.639020298 40654064.703399695 17448104.416443337 25146830.230885778 13378429.14265659 105538546.60215814 4739897.928328768 28068177.79613701 5021234.817045358 40992982.50818719 32865604.069947127 16610570.990167154 41314871.842770554 74515570.5263513 19349038.514811624 45386427.39642924 37109100.48134875 47216232.007853724 10442011.464545626 27500780.79547042 34982102.65859123 39804758.362733684 8827751.172736062 52141271.57035102 26275182.335591406 39027713.823652655 75423620.24669127 24132800.91980146 18894265.96816602 32103349.766912617 30410088.367199652 6932326.583321028 34221783.78694177 1502582.5090056236 14686968.727499962 27386048.91485579 32711408.316694833 5985660.789036459 32471986.16226078 45670204.15229666 24835546.260787494 47555391.291280374 24351780.678569574 13354184.94256983 33816097.66865702 8743883.207517218 32470482.10184659 54429536.76367352 21796382.10663532 2633225.428107854 35320144.61257884 30700771.07030498 31700780.373242635 35998555.04335819 7647921.678349295 18071181.206620984 15323400.817565119 11930550.893482514 19538277.526693154 21151593.73041751 156419.96247320427 8848712.485450655 37431690.7757097 15121812.840289732 24129360.40034932 22900509.698438313 6523299.238782461 6971590.547051579 30889198.404286463 20818333.240334906 31923008.04384757 75108042.29122435 14611843.970267158 4658042.7372309575 78699597.15029359 21296084.11936444 12979805.96298706 35792868.62141137 31042274.21355835 36475252.09817388 25314501.771178994 30635805.189252526 24298400.86367453 37855132.700824395 31611243.350660212 29625250.037383046 22136409.86812657 18706095.514759354 16322563.929547828 16827302.51508509 26119786.912160896 3888128.316340657 67168770.00183798 18302908.746074494 4089197.1926478725 90288050.82860985 34814835.92271125 1669758.909480218 28549088.4851589 24678079.384005837 28524221.479293764 13639534.600254761 25648628.71928377 21167059.874380518 10078690.939536823 10078690.939536823 18403529.56961734 28430610.233976446 30842095.040790685 9244039.150143549 1593396.1193272618 4270752.865121496 29438612.400436897 14752556.136344321 39633966.34246396 29147742.750069316 21006539.407400444 18594725.344191227 32623430.363703575 21749686.915444512 1676003.3492708092 675383.5304596926 25166453.977972906 13409557.675867276 46453484.00116772 33847554.779191025 33923575.11797646 23287205.620773043 31854928.607458327 8298790.00859181 33336907.24170041 35478787.86036428 53408286.18970038 12924906.720062902 34796293.03186184 29906808.901121754 27966445.29071767 10772921.608682502 36456753.51999134 21745823.34368783 31437618.83463859 4165804.412122479 9315506.189093169 17308147.288917072 24768087.083855335 32548016.143845145 34698260.97692519 22952125.030272875 32223256.7429199 282213.2218634519 7185648.270785786 27768462.582144883 19043539.633313566 25425584.361062814 45951758.77750435 2467775.0207679216 31848309.994189333 32606542.10642374 36784682.60045171 94137745.52875382 17396327.113525473 33313996.937035553 14586235.119777376 35915610.205369316 34433555.1095468 42168063.51221216 8186756.467389736 27478960.91709483 31553646.751517624 10139894.289598852 32142084.4656787 17151049.572685167 4376264.031914957 64091340.18990699 51512170.49031259 5737223.527957157 27918799.19412122 29241777.809640765 17893047.483512983 38782947.5622582 35194056.85295685 35257030.131940246 58161229.40100362 29768131.140569296 32187253.438941833 16035172.35558741 38316872.13745074 17066624.27054194 20381036.56066367 38748918.51523868 20020780.901753735 32665108.27823867 18567589.744468857 31613969.721407562 31974341.894465894 5851467.791254455 32526705.528991975 23273851.335191336 34120928.681747526 30962293.559054952 29967169.85189576 46737887.104123145 20980936.316457823 29502819.278170798 10055981.553238126 21110516.649236735 7484015.825216586 14932802.45686773 39970488.04895998 30640411.81038361 22486551.685823586 31104678.512783755 9515653.317803482 30668113.226849627 6951211.641029255 34181434.3239969 29147811.863886863 15647513.081652438 35000431.23973519 70298966.43704796 18483605.192585725 24008705.690123577 34775105.51575013 15174255.318518277 18061197.36032159 12361140.340879444 14280148.306810008 24741689.483838495 22147503.42376299 17009550.062952 30914220.655465063 11633842.931056997 32333216.554680835 40974986.21892529 25552345.342899863 32533414.355508503 34456802.554869965 5480516.547859256 46485807.49408022 28723959.17379673 36223336.4467155 34622407.6541923 33315782.304203052 32913652.454753432 5937182.636353914 33610756.283176616 42490586.01185007 7432901.062664855 15048093.023101274 17271060.55054419 19149802.025082197 7701427.348193728 33421093.260771345 20757077.023585074 24535564.45024795 5049879.4399877675 20125156.951437183 31549626.374984995 15863947.85516179 32997893.503837433 32360879.14313549 30458982.518484805 21090158.628535226 31805478.61973515 10165093.076681057 17110028.21569681 7807166.646754085 65370573.27702038 49798462.1353161 34693924.60188143 36340916.54475729 32554163.922606494 21686661.031134814 22089590.59591251 28448974.306081515 13015801.53669281 17071665.731133044 21702157.045790963 14992068.705152044 44360976.950443916 13031282.966518452 36079554.15903359 3692033.663239509 34320863.10072938 35179196.013932146 23887414.957849585 16037330.416180251 29759410.32963685 19464696.33771413 14764658.22813502 75873483.16122909 10365755.680815902 37229385.06048575 50066405.69343211 12169457.167805512 12098055.548688203 27539876.781522978 21571064.218692105 21216168.947215546 10474692.857630586 31456773.085702166 31573387.08929644 6246403.590574418 17235388.78150589 29852492.213742618 2017539.2360378075 38352944.586105585 36293526.91219584 14322680.582428137 24060810.38094143 12730237.814849937 48207207.15187444 35308125.19496604 32667439.466496654 19429467.453157157 7381238.43735509 33097312.936538655 15951786.726567589 32441124.74432286 34942268.30111277 4739811.504646997 18554114.810126178 33945246.37494195 35694724.034363225 26142383.460749052 30169062.554950453 35846785.92448472 34708556.483110964 36358381.169106066 30079352.500080362 22419428.745246943 22017440.48700052 27958263.29305835 56937317.75294823 6946957.105968575 20867808.37630136 9959639.882281782 2803206.3493763492 21019355.838542342 26537790.94092922 33626978.64483244 22720722.41452229 32887246.61130758 51794809.94773696 34740392.99289641 34849828.60340386 19378998.191450194 7555530.666239337 26663016.512523938 36356827.39172699 10643677.554428771 35312185.39287897 31188278.383265752 16603323.491176913 24190065.367506467 29875285.171740487 4526647.309797349 22997463.261819087 7083452.964513673 9385152.283422163 22302815.72987888 29790473.52328037 24382020.902714178 6979712.892293469 33038119.91943847 30383016.42847577 19532994.723754242 72820716.70086344 22740697.868167937 26729948.048306603 37464900.09216214 44428728.67838454 34143844.33066121 3171428.595561438 9575506.221932745 10224751.995165704 5894587.338055854 33723968.72586743 6402363.687166287 32625592.364375446 11764843.641789034 30615611.911008444 21508234.765038602 34337830.18320636 2038622.8414174262 30489063.6953881 27478351.075926997 12971470.658483736 34811715.287943855 23428600.13519201 26259024.55599542 32959655.626508906 14885307.965383397 29169265.919280812 56763558.66182243 31151721.32603081 31306521.190398637 9080650.621189907 27956738.915231537 26400247.57415016 33905599.29369077 35314782.98183421 34056798.384829745 15123739.554492269 30365141.639607698 31480142.584409077 52290705.99145809 40334175.93456018 34375311.64448003 33589967.23064635 36849407.2600818 36483345.73801898 59500102.90073249 13451277.315735104 6281151.888956322 26859897.870678697 23049832.97103507 25713853.078566443 7749574.73359202 28713269.918407556 31810450.161464445 30386125.679786105 34617237.84520312 35454391.265639104 13684651.434621226 29261143.194081098 31195077.235463634 4554132.233984362 29658894.259490814 33626210.75252213 4326893.6062742 10711047.683517853 27283517.803936075 41918818.68198084 40225325.34995506 27331861.910940137 30503081.278925095 61061740.00594688 5639949.066731758 20928152.97371945 10131435.118513154 29581808.018148426 35293905.18984935 61720446.69888587 34767795.161402926 15541805.91167145 31439972.272966083 18802128.770877574 22722397.841953617 27262101.672478583 20229594.367408495 5094079.961267544 22036165.01580135 1255435.3922979694 34752537.23105117 37842132.11806325 4212610.011927788 24851464.374330863 7960317.950055562 21988345.12708014 28020709.462224558 28050823.36521202 33723059.11864975 21690123.91414331 16372683.834644426 35496809.07015837 61680632.43680795 34006851.734229185 33653706.445089184 100287854.85142402 20867517.791959465 51889617.35042397 22541420.826834038 33546552.622331675 55094028.324676104 9606887.237134608 24832006.85600827 32547954.183017634 7982032.464728017 29056014.06492198 34590801.83463393 32007046.84909927 19671702.78545823 26928538.697566073 40472060.47011392 12820794.377321221 4844408.350099232 55519543.09519047 28096222.307212655 26902733.241163354 33548924.40261799 34806256.02696175 13163520.372891795 14363812.767247358 38025189.34280745 33374443.067337137 37453270.11269636 43288593.5112729 34862071.75346868 27567346.148938745 896162.2348734279 3876557.504483354 32225076.124331404 18942624.892195497 28354656.693082508 23309716.815793693 41298116.61903193 22819263.241070487 54963227.25770429 35021156.42726476 5098889.029619199 35501435.623177454 44772143.0926659 48317580.18428298 5250630.500283166 29951037.403275963 14300492.996236045 40289004.618553445 41498207.35749007 3466822.18858527 33692301.81443346 13031403.623819733 23153979.044855542 33101155.389473625 12766820.803781826 35059781.77370394 20796803.815006316 54758916.620263 29337321.444207 35533311.11803058 40502195.665385775 35168577.13768899 34928412.41026715 240928.26918358268 35022291.07111135 25169743.286678858 40873127.04495711 35324461.99968767 18695777.467989467 35457948.30669524 16471115.28886552 10374262.890692282 31196008.258547146 30646972.961102515 37241092.39201781 16739050.582181023 5329617.159577434 9479372.403790917 31625718.628196042 4233320.201607451 2581102.962943334 14847966.71692146 36731723.597378075 32189734.22747413 12892648.69403055 32334740.06568763 35413383.85968525 13346887.026827084 23381194.03550936 30745857.544914532 38843886.163592465 30619648.713672113 5909142.573212102 32556079.098010376 36678951.18235362 4124076.716453344 14381457.915205607 25887557.664938938 9169428.531898858 43493878.31725439 19936788.86772856 2