# vtk DataFile Version 2.0
Really cool data
ASCII
DATASET POLYDATA
POINTS 2181 float
10.0 25.0 0
9.499999999999998 2.5 0
15.5 2.5 0
15.0 12.5 0
20.0 12.5 0
19.5 2.5 0
25.5 2.5 0
25.0 20.0 0
13.625 5.0 0
12.5 6.125 0
11.375 5.0 0
12.5 3.875 0
23.625 5.0 0
22.5 6.125 0
21.375 5.0 0
22.5 3.875 0
13.625 21.5 0
12.5 22.625 0
11.375 21.5 0
12.5 20.375 0
23.625 17.5 0
22.5 18.625 0
21.375 17.5 0
22.5 16.375 0
12.5 15.5 0
20.0 15.5 0
20.0 14.5 0
12.5 14.5 0
9.991935483858025 24.63709677361116 0
9.983870967686876 24.27419354590941 0
9.975806451505594 23.91129031775169 0
9.967741935387979 23.54838709245913 0
9.959677419287308 23.18548386792893 0
9.951612903177157 22.82258064297202 0
9.943548387037561 22.45967741669023 0
9.935483870865918 22.09677418896629 0
9.927419354663494 21.73387095985724 0
9.919354838499428 21.37096773247424 0
9.911290322402236 21.00806450810057 0
9.903225806239442 20.64516128077486 0
9.895161290090327 20.28225805406479 0
9.88709677392396 19.91935482657819 0
9.879032257749005 19.55645159870528 0
9.87096774158539 19.19354837134259 0
9.862903225443695 18.8306451449664 0
9.854838709266936 18.46774191701208 0
9.846774193129884 18.10483869084486 0
9.8387096769655 17.74193546344752 0
9.830645160817648 17.3790322367941 0
9.822580644653016 17.01612900938582 0
9.814516128535823 16.65322578411198 0
9.80645161236424 16.29032255639083 0
9.798387096184427 15.92741932829917 0
9.790322580028553 15.56451610128487 0
9.782258063860747 15.20161287373363 0
9.774193547698067 14.83870964641301 0
9.766129031557885 14.47580642010487 0
9.758064515415136 14.11290319368108 0
9.749999999265055 13.74999996692745 0
9.741935483151023 13.38709674179607 0
9.733870967040986 13.02419351684439 0
9.725806450970376 12.66129029366696 0
9.717741934888643 12.29838706998896 0
9.709677418789838 11.93548384554277 0
9.701612902692275 11.57258062115251 0
9.6935483865711 11.20967739569949 0
9.685483870450787 10.84677417028545 0
9.677419354371613 10.48387094672266 0
9.669354838248523 10.12096772118364 0
9.66129032215358 9.75806449691109 0
9.653225806025599 9.39516127115204 0
9.645161289919614 9.032258046382696 0
9.63709677382252 8.669354822013439 0
9.629032257712137 8.306451597046282 0
9.620967741597934 7.943548371907037 0
9.612903225478219 7.58064514651981 0
9.604838709395764 7.217741922809518 0
9.596774193335289 6.854838700088075 0
9.588709677229938 6.491935475347274 0
9.580645161101724 6.129032249577598 0
9.572580644996847 5.766129024858337 0
9.564516128916669 5.403225801250091 0
9.556451612836 5.040322577620052 0
9.548387096737235 4.677419353175575 0
9.540322580608505 4.314516127382788 0
9.532258064471684 3.951612901225835 0
9.524193548396726 3.588709677852687 0
9.516129032273984 3.225806452329359 0
9.508064516148213 2.862903226669649 0
9.852941176575179 2.5 0
10.20588235384425 2.5 0
10.55882353096536 2.5 0
10.91176470721401 2.5 0
11.2647058842994 2.5 0
11.61764706100214 2.5 0
11.97058823810794 2.5 0
12.3235294170403 2.5 0
12.67647059214862 2.5 0
13.02941176563702 2.5 0
13.38235294061013 2.5 0
13.73529411351178 2.5 0
14.08823528775529 2.5 0
14.44117646397333 2.5 0
14.79411764123219 2.5 0
15.14705882094263 2.5 0
15.48214285710404 2.857142857919064 0
15.46428571423325 3.214285715335077 0
15.44642857135935 3.571428572812889 0
15.42857142846433 3.928571430713412 0
15.41071428559489 4.285714288102234 0
15.3928571427184 4.642857145631958 0
15.37499999986416 5.000000002716725 0
15.35714285692995 5.357142861400871 0
15.33928571401367 5.714285719726578 0
15.32142857106964 6.07142857860725 0
15.30357142814068 6.428571437186336 0
15.28571428519924 6.785714296015096 0
15.26785714229736 7.142857154052814 0
15.24999999944757 7.500000011048588 0
15.23214285665211 7.857142866957921 0
15.21428571381986 8.214285723602668 0
15.19642857098651 8.571428580269666 0
15.17857142818586 8.928571436282821 0
15.16071428546017 9.285714290796712 0
15.14285714268139 9.642857146372322 0
15.12499999988752 10.00000000224952 0
15.10714285709138 10.35714285817244 0
15.08928571426198 10.71428571476034 0
15.07142857140775 11.0714285718451 0
15.05357142859945 11.4285714280109 0
15.03571428572961 11.78571428540776 0
15.01785714284225 12.14285714315502 0
15.3571428591223 12.5 0
15.71428571719138 12.5 0
16.07142857423201 12.5 0
16.42857142974857 12.5 0
16.7857142846084 12.5 0
17.14285714112862 12.5 0
17.49999999772317 12.5 0
17.85714285297952 12.5 0
18.21428571083795 12.5 0
18.57142855939082 12.5 0
18.92857141386655 12.5 0
19.28571427430228 12.5 0
19.64285713574168 12.5 0
19.98214285709066 12.14285714181319 0
19.96428571422755 11.7857142845509 0
19.9464285713915 11.42857142782999 0
19.92857142850372 11.07142857007454 0
19.91071428566385 10.71428571327699 0
19.89285714274722 10.35714285494433 0
19.87499999981069 9.999999996213674 0
19.85714285679789 9.642857135957803 0
19.83928571385784 9.2857142771567 0
19.82142857094275 8.92857141885494 0
19.80357142811986 8.571428562397289 0
19.78571428518957 8.214285703791473 0
19.76785714222912 7.85714284458249 0
19.74999999927616 7.499999985523064 0
19.73214285649986 7.142857129997356 0
19.71428571378 6.785714275600116 0
19.69642857096893 6.42857141937854 0
19.67857142816632 6.071428563326299 0
19.66071428530542 5.714285706108507 0
19.64285714248335 5.357142849666927 0
19.62499999965938 4.999999993187642 0
19.60714285683545 4.642857136708982 0
19.58928571409201 4.285714281840209 0
19.57142857126215 3.928571425242887 0
19.55357142848666 3.571428569733251 0
19.53571428567042 3.214285713408467 0
19.51785714289288 2.857142857857421 0
19.85294117629201 2.5 0
20.20588235487999 2.5 0
20.55882352693214 2.5 0
20.91176470067818 2.5 0
21.26470587509772 2.5 0
21.61764704895601 2.5 0
21.97058822759501 2.5 0
22.32352940747382 2.5 0
22.67647058455666 2.5 0
23.02941176067775 2.5 0
23.38235293441871 2.5 0
23.73529410473613 2.5 0
24.08823527892097 2.5 0
24.44117645565941 2.5 0
24.79411763635966 2.5 0
25.14705881820279 2.5 0
25.48958333332585 2.864583333595161 0
25.47916666664597 3.229166667390891 0
25.46874999996687 3.593750001159383 0
25.45833333328636 3.958333334977398 0
25.447916666602 4.322916668929952 0
25.43749999991316 4.687500003039327 0
25.42708333324472 5.052083336434745 0
25.4166666665751 5.416666669871431 0
25.4062499998852 5.78125000401795 0
25.39583333321691 6.145833337408416 0
25.38541666653144 6.510416671399764 0
25.37499999984903 6.875000005283809 0
25.36458333316022 7.239583339392362 0
25.35416666645721 7.604166673997792 0
25.34374999977512 7.968750007870696 0
25.33333333308926 8.333333341876074 0
25.32291666640567 8.697916675801387 0
25.31249999972474 9.062500009634261 0
25.30208333305578 9.42708334304784 0
25.29166666633597 9.791666678240944 0
25.281249999644 10.1562500124601 0
25.27083333292552 10.52083334760698 0
25.26041666625816 10.88541668096443 0
25.24999999957175 11.25000001498879 0
25.23958333293401 11.61458334730956 0
25.22916666630316 11.97916667938932 0
25.21874999963477 12.34375001278308 0
25.20833333300986 12.70833334465483 0
25.19791666636482 13.07291667723147 0
25.18749999970019 13.43750001049318 0
25.17708333305312 13.8020833431408 0
25.16666666648339 14.16666667308115 0
25.15624999988681 14.53125000396162 0
25.14583333327724 14.89583333529646 0
25.13541666672773 15.26041666452946 0
25.12500000013395 15.62499999531171 0
25.11458333346292 15.9895833287975 0
25.10416666681642 16.35416666142532 0
25.09375000019333 16.71874999323352 0
25.08333333356111 17.08333332536115 0
25.07291666688319 17.44791665908837 0
25.06250000021687 17.8124999924095 0
25.05208333355612 18.17708332553584 0
25.04166666690528 18.54166665831552 0
25.03125000016995 18.90624999405174 0
25.0208333334352 19.27083332976814 0
25.01041666669018 19.63541666584358 0
24.65909090697006 20.11363636434331 0
24.31818181387862 20.22727272870713 0
23.97727272112545 20.34090909295818 0
23.63636362933978 20.45454545688674 0
23.29545454074166 20.56818181975278 0
22.95454545175678 20.68181818274774 0
22.61363635870555 20.79545454709815 0
22.27272726938004 20.90909091020665 0
21.93181817642107 21.02272727452631 0
21.59090908415283 21.13636363861572 0
21.24999999070893 21.25000000309703 0
20.909090898365 21.36363636721167 0
20.5681818062032 21.4772727312656 0
20.22727271532826 21.59090909489058 0
19.88636362288735 21.70454545903755 0
19.54545453222531 21.81818182259157 0
19.20454544067146 21.93181818644285 0
18.86363634917439 22.0454545502752 0
18.52272726008306 22.15909091330565 0
18.18181816691119 22.27272727769627 0
17.84090907624678 22.38636364125107 0
17.49999998161302 22.500000006129 0
17.15909089129634 22.61363636956789 0
16.81818180107666 22.72727273297446 0
16.47727271035784 22.84090909654739 0
16.13636362113641 22.9545454596212 0
15.79545453028867 23.06818182323711 0
15.4545454400335 23.18181818665549 0
15.11363634812483 23.29545455062506 0
14.77272725866684 23.40909091377772 0
14.43181816866006 23.52272727711332 0
14.09090907805834 23.63636364064723 0
13.74999998745307 23.75000000418231 0
13.40909089754563 23.86363636748479 0
13.06818180839043 23.97727273053652 0
12.72727271853859 24.09090909382047 0
12.38636362812021 24.20454545729326 0
12.04545453791708 24.31818182069431 0
11.70454544876188 24.43181818374604 0
11.36363635991656 24.54545454669448 0
11.02272727049761 24.65909090983413 0
10.68181818161208 24.77272727279597 0
10.34090909059876 24.88636363646708 0
13.53936447392977 5.430518861761812 0
13.29549512714208 5.795495130527656 0
12.93051886163336 6.039364473982978 0
12.06948113743464 6.039364473596931 0
11.70450486924562 5.795495126915347 0
11.46063552506678 5.430518859339278 0
11.46063552603309 4.569481138327832 0
11.7045048727207 4.204504869609567 0
12.0694811382365 3.960635526070925 0
12.93051886277896 3.960635526491545 0
13.2954951309342 4.204504873264463 0
13.53936447498188 4.569481140778189 0
23.53936447355998 5.430518862654571 0
23.29549512629944 5.795495131370292 0
22.93051885878755 6.039364475161753 0
22.06948113763989 6.039364473681951 0
21.70450486886492 5.795495126534648 0
21.46063552518245 5.430518859618539 0
21.46063552641138 4.569481137414567 0
[...]
CELL_DATA 4016
SCALARS Von_Mises float 1
LOOKUP_TABLE default
55849260.68238346 15624606.436593363 24916157.442348313 23139831.33823066 58555770.361139655 51198729.5650266 58670294.805509664 38253313.00370894 1130415.5659544098 38080903.24003358 58701079.61389658 36755009.42779323 61434338.58270234 37388370.69056944 36666705.38877981 15627928.089123536 86802047.32486378 16078156.610902328 15610919.03951959 33196608.354280356 57418158.586108856 9040849.893886445 47371559.77507544 105470827.1872079 62598227.322427265 30355369.59907836 23048154.071289077 2335410.748605379 56398686.38137956 85954897.901015 8992698.17823259 62351276.30393315 38138131.8362315 46485004.24129829 24599937.861397862 27402557.405613158 56132010.140354685 68119220.5471463 75998030.24162915 44582730.224767804 55602560.94764395 73738425.80014053 65785049.06167451 43263905.91185748 58422949.69542108 11477831.321350947 1405001.2354475325 1428733.018831268 52480746.093541674 64042363.80221627 37752800.05868962 30564688.856695276 41154604.81799551 60949034.12584387 54931927.52337965 55191477.068726964 15567294.915760137 6422133.452236592 26495532.305534065 60586345.05830419 52017264.80660398 1754523.5460848503 54922715.302350245 55370121.4986948 56957021.43171951 85953596.09867029 65995293.04015798 22739780.641977537 20972063.847736068 55471376.80625083 60745821.49234034 55735121.31464391 57359593.73703677 63382517.661186226 8884893.003593883 26582951.814875074 43802827.557190716 14847592.548832832 14804272.21430158 58028790.53318824 94466873.55842465 42815834.27309563 60274716.82867684 64107366.0025859 32921714.020349745 60061907.00278717 24280455.376632717 159469581.35297468 53045065.347083844 57413687.69953444 35590163.57028789 80522099.41735986 45115777.69448123 55791292.24099725 15281134.749315407 51723723.43798773 58596953.9471186 65773274.581870966 56770409.29341305 44794095.6664711 47746953.76457819 21004673.933525752 14356374.735387258 81913359.62622799 4346962.846810198 57278215.983611874 39514179.421614215 52729107.04378453 13735274.437816761 16330880.842807613 71895629.93030247 40570522.6756259 59354140.70167115 31074716.58979379 3713418.6935555297 3618928.006057862 25487914.479759775 47178828.95834883 53413260.79154979 132571674.25975777 59561706.570322014 24013960.840835948 23795188.00976236 58503043.79765466 78028577.82004006 79698516.63983084 43002326.99137314 25339383.467560697 1974841.3228527035 16775371.532389266 42485810.239266984 58502252.025182724 80733386.51600116 60432552.05867783 56725804.43265904 61353853.335036285 59162955.65594805 28498095.01748727 53397951.56901255 10026323.967211904 12215292.257157126 42076547.99658598 80379271.51258962 60175077.48679292 42848838.64210803 8736851.162207793 8662051.874799117 66343671.17272151 59410053.20691537 63093694.86087189 109832532.93416245 8373132.348215969 21117167.32772178 51313022.89371605 82011180.71953858 9500131.04378899 15534285.290025426 30157240.578416392 11272883.3367367 40629513.25528196 69823594.66670188 117242194.89215781 39885198.73287891 54750376.26659816 140978115.40675628 1252125.5584473722 1243021.9624634031 58039945.72758708 76230373.06818675 65982274.85621763 79824288.0344442 54463686.301785074 25295499.748015784 69433116.97450274 21127837.80388459 56824346.15764572 33785968.50655947 8672282.285644935 30572031.712101642 27882246.298118886 50206181.43153142 56117479.455801174 71812435.12376446 15317081.316262031 15439360.376192216 55435434.300563715 55345091.26259276 46260431.18592768 90742343.92304625 61577535.678089276 22903399.128660597 136131949.20668173 79274865.87950753 6862297.786562525 25493604.50010655 68774747.35376821 67492962.39115053 67140509.85752608 4410519.025726909 73671678.2105806 8424976.554901002 53787938.53406602 54678460.977225795 55948919.950396374 48139753.081974246 34526971.58290487 79445290.98978013 42396116.180673905 104049369.58510572 162133898.9872441 64875281.63631648 53592556.09184648 57067168.33826594 32650674.46726247 89115661.08090533 127411279.62865388 48343077.790084995 68586395.06197181 40585209.46547666 44257074.00055138 36972960.20359887 91680120.88323133 52607213.21242251 35678479.47282405 77851761.14201492 55943966.379049264 44664502.395724006 20734949.53985831 50249838.24722589 54945731.12027421 17939712.981704954 62048901.494035736 3730193.3146584164 30985703.438256197 33595226.97080096 63461919.42923193 23103813.37180237 33399147.43218254 106496743.66258492 235646507.76581237 78748964.35380659 41319812.38719945 69204721.22305116 28199764.568054803 60078421.260362856 22947764.405779634 40258997.49884684 49308973.99413174 40227835.996657744 40381801.11636218 11798569.317516781 62005924.55886808 67418088.18820056 46539664.58441417 25455245.236541394 55886545.27526943 56436649.563621536 54003771.4214265 69133017.07408597 62557096.087646335 56363329.05450306 30357240.646888614 55072963.55826224 64283146.712147504 53518314.16557767 62914001.3348388 36956855.44675594 68469398.65814024 54302255.79293324 2091942.7238786146 59212671.71825748 21193641.33267993 67706875.68722372 25752132.77679345 254928988.05845606 53910990.70483151 17363347.718994513 46600599.25749905 56358139.77396188 66101917.074594736 9102304.402771387 9185128.004151689 66433167.41398947 79499582.76551087 29876864.05901824 1070828.3159671517 50677276.93436202 79068850.39760832 17579549.953388 68407959.4896831 40561601.34493874 106895093.18481277 2257186.7957918765 58804738.384059526 57162140.60852103 37741565.00540942 7800636.895907658 51608296.79132103 27378958.295470297 40825725.83478173 48455440.11962691 60614859.802543946 65545927.625600025 58201108.906809315 55009871.04515868 19687993.592314884 43471973.683672264 57265352.74199882 47906071.66177965 150829677.68238762 17652808.769337445 42657913.63737376 65250396.003554925 52932447.81387717 68108546.3576291 75794402.63648684 32227021.023472518 40735762.107103094 32967867.22450371 51081415.299128786 59327812.4234743 62421306.6911054 59424253.38924091 49943746.6341559 55428402.07789597 3127021.203144524 55163543.86480179 57710473.43865471 56505319.539133675 29534327.921489313 47291641.60510004 62070494.027102314 51741722.00194219 54753974.15210254 42416844.7637883 50586598.62322941 64755589.84341057 20731010.51729533 22651755.131588038 52624925.94310234 42567915.36040374 66467313.23539514 37446379.729024306 55817816.22010429 48300917.26519405 57057775.09986795 78999362.0897223 78646692.4002503 57472779.234132044 17202280.05296732 52893792.25290639 8949186.4350364 45734472.49488674 52186885.57782437 41163974.38566758 56625906.70708038 50507428.81963125 80362229.90701814 41530619.56939857 11587709.801913833 58055375.841161385 41062362.03549102 49840764.930382445 97351794.17959327 56474742.56652556 29376425.63895957 20504884.13413094 48793510.51751704 135793811.96691442 62430135.51716127 43789091.38539831 20927869.132352736 2169213.540049493 2144067.367492323 52522633.76476405 103459090.70367618 39737042.63152036 63283919.542514615 94032575.8606679 64037596.096633516 27990411.789916933 67407078.81570509 16080978.78852538 62528397.28208498 55224115.95582114 59579059.04510081 56222811.476181254 48265319.84846215 70320434.95058572 49398975.86991001 100254143.89780858 54531102.473379776 58977628.81008246 55551213.61153787 178186030.46048245 72161831.4040052 40415692.3852298 77368633.98248719 66267586.549931735 32791841.513663027 58351341.07538157 53337737.09622698 105962144.70068371 40058562.87776497 36772076.448133014 1096504.294387164 52375502.79522515 41817010.27235366 25202971.046721287 56506410.75436027 785381.9768033492 59823065.356190585 56220660.58712931 49633821.45746802 33370211.648674194 31360901.86154561 31112520.80963218 55794410.439842574 39608953.46775527 47317682.210622914 89213615.37703174 59137521.64871429 48234420.7705431 17571093.914553292 17964686.72565097 39548788.36540317 62447492.627409376 47294154.01753312 57930996.21146033 60467951.581686705 56884474.394531816 47505053.99498245 65728477.40450392 55375990.94124127 54235341.76171281 58958096.828745686 53414725.19745819 51833358.072991595 57657254.45487168 41759571.415612094 12620914.068759875 56754101.41799141 28767861.364288174 61400523.374566466 57107002.315043814 46889275.28957043 43329485.03116464 60414070.259946 13703960.805615248 66448757.62298167 56702519.90398929 15605518.349503353 55951063.28119032 33812147.89536183 16695144.339963134 75060556.93490405 58341806.073980674 62105883.676843934 73618056.43053946 54761497.31242062 37508862.71623791 8916907.364690516 40198991.54137027 5672972.1260015005 31842069.887311716 55791191.44611275 55557403.655439265 54658951.23835141 111126486.46174404 38405576.84412488 56989765.888009235 52822426.23637204 163409161.82966188 78762923.22965345 44320196.552515075 54980245.99006331 27629851.949416343 28088354.24330336 27499049.0047255 50157504.43931016 30246041.682506416 45325891.703005075 42195049.93524937 54894464.22382607 49699871.18819632 56855065.72234951 18343102.39343307 22081055.221846025 18868884.050531797 55544276.27746091 108722531.72573183 50670261.564155534 64704259.40700131 60568331.2034247 73257632.96641219 7128880.165832608 54877628.688659765 37323947.30017434 63376466.033159815 10494447.921760477 57779652.02021462 55370715.83656212 38127849.16977794 23224166.902731344 23224166.902731344 55169173.1782165 65347676.530341044 20341596.71097526 58197891.08615312 47741208.201515615 55324786.41526315 49729766.26775294 48050838.6552874 82113164.42958991 13518764.409065908 13471817.694526082 40765718.838123605 36567361.3147704 59569114.13976844 39113859.06524023 61403840.73932514 126594898.55175097 54828937.80135621 67452103.22613366 57617631.33945695 57488597.939440005 63194924.36963552 65367296.45904452 78996663.04377875 58407388.917496845 64407720.962379485 48383984.335388474 55571147.3622063 49570879.029357545 44037176.68187827 34647765.9590886 54025515.47787191 28534233.17100508 35324071.879114546 64866118.560933776 63587591.979397535 3451414.7514132573 45910559.121687144 54926844.21027531 55832055.31558095 51727075.66941106 71983628.95076665 106871320.01107249 55165074.0014453 56587922.400599346 53181169.882622086 56205159.6279021 17808818.934902314 50571969.16840995 49233469.80648907 46246629.218975104 57574920.9678335 6614194.957686098 42799440.38212071 85162663.32112312 55613686.79817525 63633022.33730139 114465684.20779659 60271969.05050047 58437893.68875613 67419851.88662915 28763042.799511813 64812234.324138395 55056775.41383852 48791858.3562769 50384827.81099784 77242350.27795799 53500382.503833555 66010391.322268 36692101.175011426 17812657.11372894 33125822.142268643 21928301.19875166 53755574.05060727 4846362.13179821 18341985.680613086 90560316.670386 50183610.66494206 65751572.94847378 61036021.99134186 55461523.856707335 52922814.76819308 24119668.318130746 12346485.738622025 79352530.54428086 62949382.92500916 18030833.45599284 8500761.89901655 11102147.767335793 48697121.91569972 97982247.8523358 52646413.7364085 57057672.01686619 69324831.02923441 81799357.12335517 6280220.4137937715 32404523.732694004 45716093.41512617 53569662.626312934 24769907.453687653 38501291.718149506 53682070.24185239 55637090.64547337 3324006.3732573437 70949270.93806754 60819924.02921145 65418923.023950785 118294322.89154443 20573308.124570306 17004610.6894082 10550847.12336021 24546512.034285333 58701936.115713656 109040468.18161933 28941280.265752602 53457972.993359394 23392091.954607267 36937894.119162016 64699503.07021824 18900901.93814119 57667566.502209425 21589314.52184572 74834312.41476063 64829079.37296079 45172183.41085845 57410310.95642144 69332179.71032445 57285493.050836675 50779982.01090386 35486345.52015445 54625736.83603871 57094658.22662859 57902132.3541475 46071240.02208881 55231990.50893446 88805457.93854383 34135025.977810755 60446328.13508307 52890901.58461307 54089467.09505059 25439584.783590753 39479420.297833115 15892414.357378881 72612045.81822044 84768800.33527729 56660559.160189696 55911289.135989144 58287862.850037575 53107707.39061151 109212531.98917277 70592136.90403481 60639711.966714494 45919576.20876194 32056724.36729779 65871528.40693534 64828510.70856159 30960383.243957452 67003354.51038371 140123300.5692881 59607589.26746499 57506628.22705873 48368477.40812537 53419073.12677699 56486032.59839551 36030628.558862366 35399102.35939043 59966638.91132194 55000232.08090044 61618996.60297996 61509700.05208792 54994605.65841312 79428565.84463562 51810025.83219049 75311043.33511472 5941686.42421925 59267728.97346111 56963062.89284356 58551427.786985725 71981287.9569853 30005104.52604205 61530171.57616732 63295681.04445098 57274819.11124411 56088659.10270559 40387347.32014384 41856170.28861354 57131892.17624225 60030135.63438038 22703090.46440729 62873981.34845284 59367924.16454937 37565032.15402447 55107194.587476 59713532.81287032 52152834.921820864 67486751.71343562 13299642.670204416 60232604.572034284 54803493.65725503 64523163.302843064 36185957.78969293 5567435.020748122 74513873.16191044 97314976.11147673 56643530.653794065 34923856.67242947 69464626.14368805 72044179.39841253 33990739.16320665 54192248.388630986 33739779.799153425 64826101.368678585 5715781.941128567 60185440.18524703 59926595.03619124 82117491.37219043 28391919.499071863 48278752.77635553 41432511.078994825 51872641.19043999 60075977.49744469 61802499.99427938 33953835.748584054 47105230.5419069 11853857.688136376 59525204.44534981 11249783.037683254 60570567.05161308 60947333.25241016 74428708.80047481 49571994.009301126 104180847.35576725 53259676.77549829 51850757.112939954 59075770.38482888 42545516.82564179 67391290.25120747 62847236.96085128 55233400.05066385 55514195.12961688 59783354.38462484 64606707.10154535 104380113.49807303 54062354.3692774 4989258.661554205 56509684.712929204 54053622.92441891 47912379.22631501 68160125.31380886 93142035.04025692 79842772.11505362 75241173.48270352 68558491.80305658 59469866.33833631 62895262.77767983 40042899.2478347 61004329.218089335 78729591.23828728 48398165.01859911 17532642.60645013 20322640.99510544 57325359.98108859 74436992.11649968 35783324.121798076 46088756.29217591 70030817.33047405 44507048.36052015 54891915.68016355 11903364.293047113 11770850.210951226 64537135.81829675 46927022.10636259 68574607.05724987 43826237.619626135 47150489.73832146 10390888.82583517 85524645.4477226 55576021.911655076 69990330.86550437 56279443.008043386 50099280.54769672 58151600.234756336 53695297.40001897 63280523.909269705 56495262.02703181 60180941.395557076 55713567.36176673 47689345.09212963 76115553.04614972 56102678.77411511 57829897.25398212 14440798.5300382 67113797.83206505 58485407.75955242 72106720.13809618 92870882.4824925 56491493.8937612 75181267.59053531 48854183.760132805 102152501.90571761 65696004.102839656 59831460.85297012 49798411.065913364 6086588.986794713 6121777.102076772 29222889.87557607 66057350.45001285 12542554.286615213 152638466.27022463 32580038.134495515 62973212.01848527 37071911.50271304 96470319.62732317 60051807.79511882 62675777.91459712 36424729.955861524 63751382.870345496 56523866.00575141 54800859.236544475 60658631.18852642 45797380.07439561 65509640.749988995 57027102.43243196 3797063.8759129634 112763012.87356013 54138339.8187992 68751511.18460146 57948060.64329683 14215496.381191265 58021384.60958008 51209655.950268105 62751629.38230337 28980841.231633373 11414040.961928707 66131269.42663081 40862036.97736178 99785929.64018035 46244942.1197993 79290919.36536564 28221463.51309871 50217868.85655173 33715889.755182505 59562267.74495649 9446172.219843136 55100262.70011478 61888689.95127958 12928175.915923018 33412017.783980154 29319164.02778515 82514819.63877214 41874812.38310366 59288590.77413849 6287647.049238497 55744532.89052845 50839396.939489365 42887811.43866424 64662767.03419606 13354891.247973269 67271632.16011871 66240514.96632279 54659322.70029202 78053117.48001972 61866163.17459206 54582908.25210596 46062216.58995168 11807242.710067991 12656921.445011467 12704611.413613625 60253822.052775614 55956388.980005965 53610244.89921135 56792723.22188083 60646064.86923898 5781915.007768237 55595463.15925604 10112631.953191927 61774224.73439869 3747324.1156909764 3719381.5171579053 62841468.44022839 51385622.56023407 43324675.52525493 1399582.1117259874 24726664.04432088 12449462.289835036 49362419.848236494 58480933.34668146 63459038.577734396 17833383.133761905 1425683.314461428 62347604.2557465 33119856.146676846 58480131.093438014 57723647.927253015 23421811.72827365 58633800.88505756 54770096.08628824 56347656.62338002 3704022.865158803 52063283.16489886 88719403.31416237 5165929.767027825 71916305.06721655 55700380.63970175 9436540.812937222 9373476.89553852 48150985.55115608 10250987.910444215 82429822.60126892 75190070.57583576 56408133.909152165 57902637.44875943 66717940.48703846 20404871.13686996 63213767.27278273 65946513.06326998 66476303.654183455 55885721.27290171 21927722.27670635 71225828.59714788 64280678.036826774 96953555.08417144 49274643.11828224 14622931.716879865 63831460.91639096 58212416.63618199 37715537.46237722 5957452.0256908545 120520975.75398186 6199365.055708707 6227995.377156902 57621329.77209092 3342806.3727310775 3347868.7006629016 6517439.577946604 6520201.60022684 56444654.31461359 57366830.99156739 55153263.29898525 46116628.99342278 8752057.787313465 57780922.4832259 57580947.97610667 73209343.21266702 53546971.98981412 5593031.527362429 68429963.06104444 62852287.410679445 48378133.37742868 58334179.80190126 58467810.141399786 49368027.97544594 73275369.21900807 68969282.85885897 33791544.377305396 59339243.301118106 53643701.43803361 47844233.15692928 47575270.85830382 33164387.163323488 63773389.62619754 5846097.379813476 5862746.366100165 148685270.52067563 57482794.61542059 88167225.65474248 53453573.197776034 101235467.83218305 62923845.903823026 19615309.75156015 46507953.55013217 46329262.92270165 49073945.85274733 53894379.181376584 124290149.94492264 55373273.65723018 58313480.29131549 95290638.62197524 56881234.43412198 47156866.89865372 54801172.31081006 67823609.0822676 55420675.82376617 38231363.40769148 69792406.25366814 56388098.70766939 57426134.90673529 72548376.66219182 62869991.825833574 55505171.173150346 47223265.452962235 57025679.236504726 51248797.71871304 30275852.564729564 57755434.86558659 34941100.9881769 56809045.58908555 54577258.35086625 55606117.93549215 59894803.339888 45495439.62359515 11995111.17770731 38092457.10400515 61300502.01848662 17268417.215244327 54346346.34495896 65726162.580990925 61945515.24688897 35654114.56637451 15658848.548266038 62989613.14606147 57504354.02234257 59710470.105604574 59235771.639997825 65387646.624515675 58667401.21420085 42182273.97386628 1775419.3155854507 1820334.4513788663 81560212.87502259 61995213.8406781 68932435.4881609 51121203.88846934 62327046.34581155 55046668.73004273 59099621.86553658 60189533.693703406 67903888.04438147 45755434.26623837 41366959.03894159 37385325.14286407 4094150.9536683997 55492550.87196965 60821980.36643661 51925320.569484636 63277836.073787265 12135264.114536779 32321281.551556945 49819292.64671623 48874069.49478721 57655532.27506197 16909563.586109534 12444255.773142518 85489453.59312679 3749811.2096732883 7127826.468853887 3459091.279011457 71192009.69582836 179951628.39735913 61512761.26908277 55076997.582478225 3503138.594381447 44901684.1192072 57086604.25154344 72576416.11375344 43740371.34220984 319.08337238864186 26496200.244893175 62766133.80244822 54803134.053109065 61201246.34750776 45864667.16037835 90088094.31129126 57244994.97306949 46930499.755025394 56749120.61097318 64635170.51662725 49900465.66909904 13432962.997297537 58957074.51128271 54598695.25554892 33307468.506920375 35868555.605237246 51914788.73044846 19063618.166767534 49501130.706210464 66759005.420211546 58588314.59748547 46853661.5114848 33085977.863350976 63977579.676194645 50789172.66478264 56398673.68129435 58750866.46743677 24870399.629691258 54082297.922759496 67361199.55636