# vtk DataFile Version 2.0
Really cool data
ASCII
DATASET POLYDATA
POINTS 2288 float
10.0 25.0 0
9.749999999999998 2.5 0
15.25 2.5 0
15.0 12.5 0
20.0 12.5 0
19.75 2.5 0
25.25 2.5 0
25.0 20.0 0
13.015625 5.0 0
12.5 5.515625 0
11.984375 5.0 0
12.5 4.484375 0
23.015625 5.0 0
22.5 5.515625 0
21.984375 5.0 0
22.5 4.484375 0
13.015625 21.5 0
12.5 22.015625 0
11.984375 21.5 0
12.5 20.984375 0
23.015625 17.5 0
22.5 18.015625 0
21.984375 17.5 0
22.5 16.984375 0
12.5 15.5 0
20.0 15.5 0
20.0 14.5 0
12.5 14.5 0
9.995967741929068 24.63709677361624 0
9.99193548384352 24.27419354591668 0
9.987903225752747 23.91129031774724 0
9.983870967693909 23.54838709245178 0
9.979838709643776 23.1854838679398 0
9.975806451588815 22.82258064299319 0
9.971774193518987 22.45967741670884 0
9.967741935433088 22.0967741889779 0
9.963709677331826 21.73387095986437 0
9.959677419249761 21.37096773247854 0
9.955645161201263 21.00806450811359 0
9.951612903119845 20.64516128078604 0
9.94758064504518 20.28225805406609 0
9.943548386962053 19.9193548265848 0
9.93951612887461 19.55645159871496 0
9.935483870792845 19.19354837135627 0
9.93145161272193 18.83064514497369 0
9.927419354633525 18.46774191701725 0
9.92338709656502 18.10483869085204 0
9.91935483848279 17.74193546345097 0
9.915322580408823 17.37903223679417 0
9.911290322326463 17.01612900938176 0
9.907258064267786 16.65322578410088 0
9.903225806182238 16.29032255640144 0
9.899193548092457 15.92741932832128 0
9.89516129001441 15.56451610129687 0
9.89112903193036 15.20161287373247 0
9.887096773848848 14.83870964639635 0
9.88306451577868 14.47580642008116 0
9.879032257707456 14.11290319367111 0
9.874999999632388 13.7499999669152 0
9.87096774157541 13.38709674178694 0
9.866935483520326 13.02419351682927 0
9.862903225484896 12.66129029364055 0
9.858870967443991 12.29838706995923 0
9.854838709394688 11.93548384552203 0
9.85080645134599 11.57258062113923 0
9.84677419328547 11.2096773956924 0
9.842741935225352 10.84677417028196 0
9.838709677185804 10.48387094672252 0
9.834677419124317 10.12096772118856 0
9.830645161077069 9.758064496936328 0
9.82661290301319 9.39516127118734 0
9.82258064496042 9.032258046437814 0
9.818548386911868 8.669354822068383 0
9.814516128856654 8.30645159709885 0
9.810483870799494 7.943548371954425 0
9.806451612739686 7.580645146572026 0
9.802419354698465 7.217741922862086 0
9.798387096668439 6.85483870015975 0
9.794354838615694 6.491935475412687 0
9.790322580551589 6.129032249643185 0
9.786290322498939 5.766129024904508 0
9.78225806445883 5.4032258012946 0
9.778225806418291 5.040322577646533 0
9.774193548368817 4.677419353193986 0
9.770161290304422 4.314516127397968 0
9.766129032236005 3.951612901240819 0
9.762096774198463 3.588709677861742 0
9.758064516136995 3.225806452329888 0
9.75403225807409 2.862903226668307 0
10.11666666610577 2.5 0
10.48333333385953 2.5 0
10.85000000105818 2.5 0
11.21666666867316 2.5 0
11.58333333336224 2.5 0
11.95000000131839 2.5 0
12.31666666820478 2.5 0
12.68333333056934 2.5 0
13.0499999971377 2.5 0
13.41666666013254 2.5 0
13.78333332331241 2.5 0
14.14999998971309 2.5 0
14.51666665948202 2.5 0
14.88333332845008 2.499999999999999 0
15.24107142855263 2.857142857894746 0
15.23214285711795 3.214285715281784 0
15.22321428568154 3.571428572738167 0
15.21428571423432 3.928571430627341 0
15.20535714279942 4.285714288023047 0
15.19642857135995 4.642857145602022 0
15.18749999993289 5.000000002684433 0
15.17857142846358 5.357142861456524 0
15.16964285700679 5.714285719728339 0
15.16071428553705 6.071428578518076 0
15.15178571407274 6.428571437090492 0
15.14285714259704 6.785714296118296 0
15.13392857114501 7.142857154199406 0
15.12499999971972 7.500000011211233 0
15.11607142832301 7.857142867079478 0
15.1071428569088 8.21428572364799 0
15.09821428549156 8.571428580337546 0
15.0892857140937 8.928571436252073 0
15.08035714273443 9.285714290622575 0
15.07142857134667 9.642857146133258 0
15.06249999994795 10.000000002082 0
15.05357142854956 10.35714285801773 0
15.04464285713485 10.71428571460605 0
15.03571428570876 11.07142857164946 0
15.0267857143025 11.42857142790003 0
15.01785714286502 11.78571428539929 0
15.00892857142013 12.14285714319497 0
15.3571428591223 12.5 0
15.71428571719138 12.5 0
16.07142857423201 12.5 0
16.42857142974857 12.5 0
16.7857142846084 12.5 0
17.14285714112862 12.5 0
17.49999999772317 12.5 0
17.85714285297952 12.5 0
18.21428571083795 12.5 0
18.57142855939082 12.5 0
18.92857141386655 12.5 0
19.28571427430228 12.5 0
19.64285713574168 12.5 0
19.99107142854329 12.14285714173175 0
19.98214285710808 11.7857142843235 0
19.9732142856822 11.42857142728799 0
19.96428571423453 11.07142856938133 0
19.95535714282337 10.71428571293464 0
19.94642857136245 10.35714285449797 0
19.93749999989375 9.999999995749876 0
19.92857142839276 9.642857135710214 0
19.91964285692271 9.285714276908246 0
19.91071428546458 8.928571418583031 0
19.90178571404575 8.571428561829856 0
19.89285714258144 8.214285703257598 0
19.88392857110147 7.857142844058753 0
19.87499999962442 7.499999984976929 0
19.86607142823917 7.142857129566706 0
19.85714285687816 6.785714275126081 0
19.84821428547457 6.428571418982778 0
19.83928571407323 6.071428562929247 0
19.83035714264225 5.714285705690037 0
19.82142857123506 5.357142849402467 0
19.81249999981376 4.999999992550225 0
19.8035714284025 4.642857136099819 0
19.79464285702924 4.285714281169751 0
19.7857142856151 3.928571424604182 0
19.77678571422344 3.571428568937625 0
19.76785714281399 3.214285712559351 0
19.75892857141964 2.857142856785682 0
20.11666666646139 2.5 0
20.48333333599902 2.5 0
20.85000000037297 2.5 0
21.2166666666204 2.5 0
21.58333333661485 2.5 0
21.94999999805711 2.5 0
22.31666666291099 2.5 0
22.6833333246655 2.5 0
23.04999999031157 2.5 0
23.41666665336712 2.5 0
23.7833333158213 2.5 0
24.14999998189816 2.5 0
24.51666665379502 2.5 0
24.8833333260793 2.5 0
25.24479166666316 2.864583333578429 0
25.23958333332243 3.229166667430228 0
25.23437499998316 3.59375000117879 0
25.22916666664224 3.958333335042977 0
25.22395833329952 4.322916669033526 0
25.21874999995567 4.687500003103358 0
25.21354166662136 5.052083336505047 0
25.20833333328796 5.416666669842317 0
25.20312499994325 5.78125000397244 0
25.19791666660968 6.145833337322924 0
25.19270833326647 6.510416671347334 0
25.18749999992573 6.875000005198308 0
25.18229166657996 7.239583339402762 0
25.17708333322847 7.604166674006945 0
25.17187499988757 7.968750007869894 0
25.16666666654491 8.333333341856315 0
25.16145833320392 8.697916675725455 0
25.15624999986355 9.062500009551652 0
25.1510416665306 9.42708334285754 0
25.14583333317543 9.791666677719402 0
25.1406249998306 10.15625001185779 0
25.13541666647126 10.52083334701201 0
25.13020833313536 10.88541668052437 0
25.12499999979433 11.25000001439681 0
25.11979166647349 11.61458334685533 0
25.11458333315809 11.97916667893395 0
25.10937499982347 12.34375001235711 0
25.10416666650693 12.70833334451501 0
25.09895833318476 13.07291667706603 0
25.09374999985275 13.4375000103075 0
25.08854166652795 13.80208334304352 0
25.08333333324327 14.16666667297151 0
25.07812499994489 14.53125000385754 0
25.07291666664035 14.89583333517551 0
25.06770833336538 15.2604166644238 0
25.06250000006882 15.62499999518263 0
25.0572916667336 15.98958332864792 0
25.05208333341046 16.35416666126748 0
25.04687500010878 16.71874999238476 0
25.04166666678705 17.08333332490666 0
25.0364583334479 17.44791665864697 0
25.03125000011321 17.81249999207509 0
25.02604166678298 18.17708332519102 0
25.02083333345432 18.54166665819793 0
25.01562500008643 18.90624999395011 0
25.0104166667187 19.27083332969072 0
25.0052083333458 19.63541666579472 0
24.65909090697006 20.11363636434331 0
24.31818181387862 20.22727272870713 0
23.97727272112545 20.34090909295818 0
23.63636362933978 20.45454545688674 0
23.29545454074166 20.56818181975278 0
22.95454545175678 20.68181818274774 0
22.61363635870555 20.79545454709815 0
22.27272726938004 20.90909091020665 0
21.93181817642107 21.02272727452631 0
21.59090908415283 21.13636363861572 0
21.24999999070893 21.25000000309703 0
20.909090898365 21.36363636721167 0
20.5681818062032 21.4772727312656 0
20.22727271532826 21.59090909489058 0
19.88636362288735 21.70454545903755 0
19.54545453222531 21.81818182259157 0
19.20454544067146 21.93181818644285 0
18.86363634917439 22.0454545502752 0
18.52272726008306 22.15909091330565 0
18.18181816691119 22.27272727769627 0
17.84090907624678 22.38636364125107 0
17.49999998161302 22.500000006129 0
17.15909089129634 22.61363636956789 0
16.81818180107666 22.72727273297446 0
16.47727271035784 22.84090909654739 0
16.13636362113641 22.9545454596212 0
15.79545453028867 23.06818182323711 0
15.4545454400335 23.18181818665549 0
15.11363634812483 23.29545455062506 0
14.77272725866684 23.40909091377772 0
14.43181816866006 23.52272727711332 0
14.09090907805834 23.63636364064723 0
13.74999998745307 23.75000000418231 0
13.40909089754563 23.86363636748479 0
13.06818180839043 23.97727273053652 0
12.72727271853859 24.09090909382047 0
12.38636362812021 24.20454545729326 0
12.04545453791708 24.31818182069431 0
11.70454544876188 24.43181818374604 0
11.36363635991656 24.54545454669448 0
11.02272727049761 24.65909090983413 0
10.68181818161208 24.77272727279597 0
10.34090909059876 24.88636363646708 0
12.86460193220061 5.364601935898014 0
12.13539806564783 5.364601933746452 0
12.13539806779939 4.635398064101986 0
12.86460193435217 4.635398066253548 0
22.86460193304701 5.364601935051613 0
22.13539806478868 5.364601932887309 0
22.13539806695299 4.635398064948387 0
22.86460193521132 4.635398067112691 0
12.86460193226812 21.86460193583051 0
12.13539806566697 21.86460193376559 0
12.13539806773188 21.13539806416949 0
12.86460193433303 21.13539806623441 0
22.86460193292542 17.86460193517321 0
22.13539806482679 17.86460193292542 0
22.13539806707458 17.13539806482679 0
22.86460193517321 17.13539806707458 0
13.0357142863834 15.5 0
13.57142857334916 15.5 0
14.10714285783675 15.5 0
14.64285714470339 15.5 0
15.17857143070267 15.5 0
15.71428571720997 15.5 0
[...]
CELL_DATA 4266
SCALARS Von_Mises float 1
LOOKUP_TABLE default
34263833.779993206 33073127.519102257 4013648.149525748 3929576.9517692784 10957155.26341203 39371210.89515091 11089580.387596859 4154826.9814961143 47293602.75134099 30560329.035859577 5005362.485130684 694329.4236532103 31490391.902950738 31269242.082350656 29388410.915067878 6092720.851302958 31082269.729276247 2578646.102381812 31518551.94326305 34963793.66229175 11173092.810470913 23159533.388812624 1848502.2881579197 30391372.90079912 629227.5795632526 31493237.72311233 37565989.114735976 1868019.8967185514 4171777.161831949 23159415.539500948 19643481.959052127 3734695.2090941453 43579335.31757777 30162505.22490212 13114368.520609582 31500045.952510133 1212322.1749392585 35792063.977222934 48330368.82694129 4157309.4004087965 23548314.904512923 28331283.28888622 32392183.497724734 40899316.32083911 42669421.78474802 33243179.753220662 32508098.93879241 28894385.661143966 33711685.804874696 9648553.847421609 15549979.191127196 26467558.428164575 15791379.793693528 28480697.68685987 33828526.4120655 6387747.255351261 35995667.96415804 10040537.359785674 8880679.106244337 34530306.072519295 14009765.966426866 32215534.22073111 28289462.208192438 32750650.159998387 31400996.738476586 36015991.75437289 33488266.83568379 36358778.453785464 8537427.759397859 22625004.872133154 43749196.75517959 13167962.438964918 24118183.5101451 1774566.8284193845 25251882.388753753 32385603.050655704 9072340.445091007 11368442.5156427 13791853.795135433 28327211.46185476 31161263.343517497 32774648.034376536 35828097.315035224 24447015.8153996 7702530.471484963 12931173.86468962 31325330.51547739 19886036.74129853 24966932.725170385 3229144.8291812977 23609733.62830277 31390529.417192034 31198997.39089732 31106545.061248686 1056940.1226686558 21141203.154247556 13139033.34137843 10356724.554694433 12435322.371860377 30949296.264365494 31124782.982968006 33505353.335907385 7717815.422439741 34092566.22800942 37130406.72980511 55446765.02454178 29716517.425086837 31593121.849892084 3001525.5646959655 7891182.498020461 34961529.01256698 19056944.40801946 31755690.706466634 4967666.971993445 28670544.659541648 29804536.26446338 29584984.549069412 30552717.105178814 17985117.3949471 29179770.27911343 19209644.86640264 30010196.758253526 3264208.424074674 27228351.04452461 29429269.35465786 7430836.762902969 12343364.94236998 2255683.5789046646 22312046.21978593 29259819.085418973 24823681.056720868 23909926.874735937 28615671.73680637 16115299.93458631 18821119.50071371 31254568.220734145 29942212.359126717 29702694.8358796 38365903.42851094 29955901.248627357 28907370.93482863 37460790.49849854 17986213.484470755 10062503.926498147 52439608.54433128 23124121.02170371 14971540.904441303 43473957.02475915 26077060.714396797 19070080.62945246 19238228.8600603 10784263.286786664 10660065.193113383 22343380.665381595 8313867.813682257 30464115.94536933 28475006.5938379 24064749.103466466 31031349.101508692 14416494.378851159 15870223.789757907 58467476.390876606 34033482.991443545 33508816.091930605 14061552.009255283 27204332.8786332 30009808.282564502 39639919.52269468 34575697.85989579 31297785.465326898 33456710.82016328 49789477.28645605 46359035.17156678 7342682.3578983275 13157424.9411344 8327928.622398199 25897471.623535737 29243484.246152136 29205257.10185573 1958605.3467895114 7408943.30504688 13118113.149005996 45051170.076195754 22073979.53622378 13151425.566840727 14176059.762168227 2484669.795367193 28820946.995875217 10765782.619934605 64949511.01521383 30690945.200377367 34168761.7682796 21520842.407411996 13030827.03570764 50435468.67864488 463200.1165907474 18969732.157781135 3150974.7253902927 1894991.373962626 3137025.530786592 31611332.132018972 12478931.698792128 12597486.024711832 2458157.048971294 11597364.482901366 31016170.746835835 20058069.62381311 11609152.102517977 19391180.85971794 9329427.2439038 5837867.73058189 19777753.849174365 28179425.63416382 6088925.527990553 19542464.038858753 5076090.861573605 19078399.23307918 27561672.67980331 12735731.171240041 30763496.962937526 16833458.509306625 30770368.655396134 9283472.202050451 22710851.51893079 22683454.833394572 36018977.88147756 12706439.324378567 13686466.084873559 26894330.99347324 13521662.605106968 7146156.719237802 28970374.75434464 34580043.83231118 28064343.372732937 30522362.858307924 15788530.514949827 37145688.3647267 31608007.09731672 36780956.400426425 40061742.68664829 25397481.46091458 5047472.310850925 23200715.726061657 30620745.452935215 26335857.476184614 32053904.11015143 12112766.764225407 40829634.03594973 9467606.235698435 9106359.668213628 1113705.0312393801 19662178.727287363 40254131.645028204 40481490.796143495 18796203.27494317 28306699.319357444 26693019.17253548 20965070.570226382 33028725.714899544 35677426.66945037 13420509.266714381 32369190.78018805 12324551.694241172 32442521.52971674 15614178.392998422 15373948.816072633 39221866.50860308 8982946.52775418 30142816.47015026 18918562.053249814 18941983.944449272 26160628.605469625 21185945.612835087 22125280.686584707 9946678.598803874 1725958.0321508544 1727889.6714580182 32774619.593342405 28209522.629020832 18521716.568218086 27837073.57171353 22675843.068229295 17684453.31582948 30497355.32455768 28847894.82601496 10696408.400992839 2722163.0927917864 37974818.227206245 27961051.89730462 19854953.236070406 34729665.95031882 8199355.953608806 2111215.2594563337 2101881.3077383563 29231758.256136496 33081254.924569167 41353358.94875136 6636820.786496271 10065780.594969638 29068886.856423814 18165932.108571127 18475032.393080343 32139175.28991356 20679243.842379227 41751690.121704705 32103487.654682375 30270476.70529848 37064568.713153034 10903486.701406786 21583394.722442392 38366949.27268855 15629297.653541785 27012310.029465917 38190997.15851087 27594295.35194677 8635743.242033891 24961137.55143951 22378849.442305773 23112516.72787923 37220404.88898617 28361660.41641466 8334875.240271815 22539704.57995784 28477578.71255983 46383230.12148053 27922909.43014602 21618893.80010742 7356524.861485565 86699409.66976976 39943664.140379876 26485380.648165967 13923220.425275436 33593905.73159606 30565555.850764092 32318484.772455744 27162550.546066295 33980028.38083973 34800355.77542724 18943921.351342622 30062093.141018458 25392171.762057513 11076537.292905036 42864380.7840542 29398619.806908954 30262482.645042636 32231581.65718272 13068184.47199858 14311712.599633487 8219843.30060288 35354929.97227535 31645692.710354194 14218230.874834312 24299713.088940717 25210137.819753647 31864669.52447264 8128925.515166506 20654122.982076246 14075620.765095118 26081915.590208713 14370705.287853362 45071251.28526465 15609350.80180832 23792942.23271398 10686276.38446607 15317677.321466858 15619103.670776783 15568639.277200764 27754523.75144436 31965703.67443265 31496333.25249576 20234960.95963772 9006143.10235504 10255341.063684858 1180360.9772433124 15233956.48737261 75270215.8257724 31582902.24810942 51982436.52748884 29651818.02159814 31649146.46398288 32430484.997833237 9186435.804345649 27716890.92347305 23737417.57920704 30548404.737307493 15263980.218487391 12503302.813054979 29753346.736108225 23932304.673374616 5881568.246395408 28171467.544421755 38408863.68252807 31758296.922312185 30141205.27762516 30709982.99104358 31068634.914956193 32101932.335171934 34146169.63034212 11425464.409557436 33016113.08578901 8843107.876873713 32391963.601657096 33607481.98552454 29588354.24150462 10859996.275191534 33891635.41882126 23233477.701630354 20655294.33164381 6466379.053712269 24472346.41706435 10966808.929579254 93792944.06582074 18442859.060368814 21247624.333339162 41766974.87891755 18587942.67016148 13317654.958436072 28771194.280892465 1706158.4815065034 29812497.33887385 12258711.491292706 58700915.072992526 25976296.254045695 4374427.6759701 36769490.200209655 55846415.71630656 21137443.547511112 38825792.85549586 29044079.14917403 32010082.965306453 23258576.164969053 15049330.843031952 56222188.607725404 29760539.272278357 30477669.362256642 24660634.25837888 12572019.295514988 37528960.60457624 3680956.2119508875 28656260.867265135 29752463.49312496 19736380.42390412 10061510.661763078 10148470.872938704 27840687.803100195 34246153.49490127 33390691.216651022 29037656.9486822 6607305.753864693 19270211.89061702 3649660.5817519114 10565384.855166662 1698009.324068481 29221934.64641167 31959290.856049925 23322650.725627128 24790644.932678033 1073908.2682736495 2561840.2249298827 11459517.715520658 77556249.59751152 30941274.965781827 31888174.770357516 33415210.741769563 18070020.75762393 26118610.310266856 34050425.1977674 37612295.090647124 31420746.072193485 31553460.319004387 31448824.505230036 48524542.47753909 19855981.733227056 42107777.885470755 31053945.559949163 34153820.66336947 21733910.086980913 68658046.72256161 9691334.186072882 29237684.4052525 32661508.760064323 49667524.33478627 29305114.693627782 10188122.431469763 10188122.431469763 26607687.623012245 40484021.61251772 992857.5155214304 30726232.551161133 27912627.74856669 24210845.77002288 34244415.9620578 9051093.916805463 30270263.77844324 15321058.049388941 1217322.0290797967 25522039.173898697 70182613.4082748 20258758.532903716 20392197.730478186 27230656.425116193 22782948.403532904 14195575.807519061 29297518.54436777 73304517.83468443 41264082.498915896 4818319.89492586 33665386.18390304 33186026.216825232 33416517.756920617 31721211.39510125 33949196.82562183 1219365.0754633504 33028973.240976937 37425246.20421302 33585706.56544247 34364753.630990036 14404729.056836654 32144194.893529143 4630157.345474952 31196583.684335604 6542959.558231482 27828334.1173621 5171850.5576888 40068321.83325751 10881412.64254652 18026818.11552378 14501327.514655774 24598652.00712532 31503715.134258173 16422859.22875117 30487506.703794956 30098944.986760642 29940879.930577308 32451464.76733189 32348793.82977331 49215957.88583353 33419926.77655351 14496251.004553331 28919890.41853655 52759321.220781796 13708924.100301897 30249271.479316786 5260204.633510719 31262279.221847046 47035860.50137421 27649812.258362204 7391370.188554146 31468783.390644334 35454931.27298054 32015306.16080342 32685074.948186055 29986567.423668243 19989542.387840163 3438114.9092865027 31917629.576131396 10529718.758293742 7601662.65763369 24508211.945729636 35699439.589449756 33391951.567600623 46101739.98054259 4313906.828060909 28479482.86482755 31238830.119131994 3422654.915149084 37285799.54439186 22618920.29139765 35585217.7530748 26472548.141585853 10415793.445012994 29976046.564706337 50263567.78705583 34552680.735625684 31487809.86630072 24144011.564921346 41903215.13405585 42845782.135578886 29188670.90675886 8375889.133087156 33340959.49663886 21465678.35734416 161444644.65386605 33325625.76894389 29012960.80940044 35449460.246184826 8686165.646412127 2428149.8299690606 22940546.98433238 28601977.5057803 33303589.1123726 22203616.19537405 62246371.11285993 19604513.07793973 31431304.42946348 7944939.5837274045 18205929.130933244 36180465.03346564 48601351.31688652 32761256.510922898 20160810.17907779 31611474.30948276 33079478.46844731 31678006.163383488 27459226.385370668 14159872.273218881 30090502.629923042 15698693.719772363 8679484.309508802 8580680.128426611 8940230.521842945 30650260.19948192 27029674.43353706 28643156.61992878 27491054.99478761 5325003.572714867 45917248.57504431 28701928.283031885 1350150.5716273042 5933845.523554897 18295030.648724157 8810527.79932347 29438558.40446827 22489734.989153963 23808315.482792865 31754132.102373634 46658087.551198274 29568080.33135869 12190114.799806364 29190589.243480068 33256128.93276049 26776471.248920437 32035727.304049313 24348453.473911185 17725856.765842404 60703489.33125545 29655222.200313486 26103271.196253113 11490283.850906178 11529204.402955253 26081944.73336127 28122727.009419475 11728309.346077522 28817940.30259547 27775062.836336557 25271718.556367017 25772246.04566471 31602972.78057237 18302430.014581736 30054214.25186393 23184700.26843786 33007603.444294415 33274057.331234947 29821318.31506513 20829090.40188535 36777591.61781361 24185859.946784906 8228740.420485478 33654548.81605566 39690782.27852945 35281107.660319686 35171292.37160745 6425580.292849044 30073932.65669512 30331414.235545393 29884162.145003438 11778317.71037338 4368155.877605552 27240879.61398086 30217738.54974366 24624485.0755674 26932311.102764003 4084247.67985789 42675266.67780208 8432651.64421673 2097029.401826018 48518446.40666091 19526221.68139166 12719075.521218313 25334661.358391564 19479488.644704197 9307623.214598885 30106562.186929982 30883268.260977313 27037356.081148352 27228654.628852613 39963264.113376446 26370238.71684179 35372354.03939725 26599681.67155271 19008624.288286984 28606743.67414893 34546557.978004605 30890880.934554525 35861418.0939507 29076822.827770505 8482170.200542744 57415104.421169005 29337072.63411977 7978926.429276452 28764676.472193874 35042954.04573265 16321379.226755392 31622285.07851335 28888303.042513188 31419592.738564637 7634803.359483772 9607261.904869976 28740520.19554127 2977485.6571339755 23650774.245340362 34713337.86032582 29071170.449153807 37283218.931014866 32013702.307370596 15724327.620098855 12581732.546661267 23271506.26640967 12997350.750905208 9239032.67358834 30097947.843113836 7340153.658129325 17365661.417204347 27499947.526188478 2070944.0758488039 20029292.814822253 32387633.69957258 31336653.782922596 24970517.276941705 11337675.86950486 18831916.76440581 3248176.39080188 57353166.83215957 11294283.236124614 30115855.90723328 23154943.02561351 19698967.591238797 16129031.874085924 25790497.436709404 34233797.71199759 5851511.451765386 23990429.556588784 29281288.911188062 2067002.6202167342 29461320.539387893 28585239.888978776 28363861.89508533 15776394.125029547 11261022.491786854 58438356.460318 31408538.40708418 14935067.46253309 3289702.4187034 34679178.35591473 48068762.085987486 16139686.564705836 33004992.638637435 38794190.00327749 29930059.930695623 10322755.146860981 31146600.72555533 10326393.09987915 19648652.16413814 9905624.974812293 2597650.9079431524 2605331.637627328 23813342.210646957 1095574.8220243137 26365372.042337753 2076161.4905864398 13493544.350577815 2093800.4339467837 11462624.345287353 2262778.610279072 9280986.78014739 47886261.56317724 31645211.730954543 36117327.72582451 15211475.47288258 25716756.814922437 26176607.749932684 12402156.939045193 31617866.804868918 24284482.804663405 31772620.717985507 10200689.555396192 11278132.52293243 30215658.305255413 20356089.164635852 32476911.907647535 14050623.43404371 31282353.060851984 22194698.07135184 14995217.376011593 52698265.816036575 40002647.30732205 3049533.411414501 27230007.327417955 40092756.21730482 31579532.63771411 40144972.46191127 5372722.083840399 5369693.401929477 35084614.039693296 21719382.944520276 32203775.854638714 35655103.9232372 23492075.72590409 62023659.612125084 22109840.0442194 11766910.864673033 8147571.070952135 23048991.248255856 29497954.52703714 29654037.994296767 42531480.63289083 13016337.595070664 16051758.382999916 39132587.65991055 29658116.965741158 43349055.580951564 14932678.026301548 22651690.168376204 35270990.97383253 12940536.346033627 33782868.69650991 31487038.66117209 39201899.70923565 8435895.702954406 3007071.2615374266 38188516.35447063 10376685.027209925 31809825.844234083 31473027.861550126 38906437.55199976 32145363.053076282 31637707.502477445 1220188.8924838162 13486772.512953786 25515371.635899328 18994521.842388473 29421107.738982927 32445054.749138154 26437364.209454738 8049885.168538951 43706739.797973566 8138408.742291967 24531962.57576484 26491251.216798633 38718820.021700025 23455242.21463153 16886298.733056936 14270094.377315992 29777568.944214612 64240760.022311576 17686182.327159915 23961662.325285606 28668371.469626904 14122427.74606944 31221931.512308143 20101694.236693434 33927541.38076185 23827159.562453534 15294078.373052536 3135023.835198697 20331480.82642739 30646820.526772633 27350925.010477617 9865507.364960894 19396998.173134144 38304462.4173752 41789609.779339276 3201406.232152318 29998293.18017105 31538933.728659716 30608044.116929412 6767819.632374326 20228927.26008109 30913684.928477667 23576779.41671399 29435468.234188244 17524583.88318327 23876241.316683486 19549533.535559498 8532953.49352435 3781240.2617432685 3567771.6221971083 14275355.024444684 29256833.973755103 1939207.0016750193 255031.11380769746 6750401.554937953 33237313.62834654 31552201.256749023 5732503.985261915 29355757.964748915 41784547.26798309 30742864.345349927 18490685.408820674 25807202.76985821 32656585.434361175 15221253.960895201 18202210.941999696 6365952.521376967 54289907.64989209 15623208.081123484 16242838.72316128 2761588.8182944963 33637922.85722002 11872239.444826778 3132034.944566756 23641616.24049619 14017663.962718753 30600793.337200742 3315027.1949775065 2985974.695489886 29733698.371847104 1378882.2140460636 30847822.43991981 12257546.138465194 131734342.69225994 30339946.967514608 30501916.322859105 37800391.75951086 25177177.158572696 4566742.637582498 3899733.9758362896 21744693.990667365 40093780.17233704 30072054.020457316 6234216.21927044 32038556.283360798 30171539.65182778 17996633.442550953 30070361.519614346 18385691.8192964 17633858.877980813 3176931.116083819 31059394.678039975 28246782.666558515 30088637.385040663 30720098.817006987 34167182.53672632 31726825.27780751 14236817.686000563 3129973.0793352444 1484251.3463003251 34800744.63279577 22918289.037547767 30654283.430717137 3211296.855660998 23964688.73158211 8778574.280299405 21356660.551782385 30547696.34189229 40252770.936909765 28796881.141341083 31027292.657741137 13835474.620327948 14969422.431416327 28368120.53023655 5655209.002712992 27974960.08095562 26850540.744597394 31294864.169653706 29113071.31466083 31546999.47296516 33313973.28814059 11227541.980107501 34763472.094995566 29264364.59424775 25255431.929308098 29188525.8196361 40597186.24300067 26222718.012943823 10450156.027036475 31576724.98396008 29110523.235603873 36946757.473298475 32502159.29102904 33299236.306303445 32248864.139279813 15675747.706538348 28924527.559393197 36008304.804550596 22554436.81253761 21519654.16420609 21327120.17653734 33518912.679904833 5172834.141134895 30724120.88088062 5045351.047801127 32844476.909087546 30772436.196062505 5841511.732476819 50688961.49261954 29542578.323699664 35232680.593754284 28723775.730792034 33714379.022968255 7427948.889096182 10363323.760257978 25267972.63096724 16182009.562396802 18126653.833201285 24957807.497764766 29090911.82276762 4948207.22907934 16637253.34081805 16745597.764502786 10278949.366063017 9848809.412746008 58981986.3307931 32240610.504231367 29925295.699783348 28316661.875247702 17339705.828788985 38431199.24073838 45566982.29060148 91221389.31096552 31082544.790838294 19159659.57546241 11662675.085158842 13982682.052709434 2193030.478443443 34748021.70268736 30563304.845592093 19823986.56556555 29815285.27889901 29901981.74513329 61004263.850057304 16853917.591439392 34586763.92869327 5296744.053494659 6653827.7275371635 11671695.41087482 30300488.90407604 33954205.53322553 8383944.087466568 20571622.313596774 3925323.6430572034 8077151.917393371 31640289.481204037 3131720.8505013483 12028092.83624016 32216433.012999926 3514276.277988253 33609390.64698132 14142515.311146406 6921521.626204031 1590405.4689563145 1595273.720657617 31423735.958671637 31790925.85431106 8251086.425159271 37066605.326742925 17851308.505850133 839601.9167741367 22739019.223473694 21893273.559583534 31047412.177280705 30322624.092530504 22155273.74598883 23504340.391021583 27152071.505273927 22294750.23466398 12938188.915521607 21647501.68479505 44320144.127363354 3700879.630797555 3701241.9080375466 15564956.63308718 42189982.03146664 30245118.43802115 13639343.934720872 24026465.50463097 37789026.453588404 30723134.160699654 27059529.939467