# vtk DataFile Version 2.0
Really cool data
ASCII
DATASET POLYDATA
POINTS 2103 float
10.0 25.0 0
9.749999999999998 2.5 0
15.25 2.5 0
15.0 12.5 0
20.0 12.5 0
19.75 2.5 0
25.25 2.5 0
25.0 20.0 0
13.625 5.0 0
12.5 6.125 0
11.375 5.0 0
12.5 3.875 0
23.625 5.0 0
22.5 6.125 0
21.375 5.0 0
22.5 3.875 0
13.625 21.5 0
12.5 22.625 0
11.375 21.5 0
12.5 20.375 0
23.625 17.5 0
22.5 18.625 0
21.375 17.5 0
22.5 16.375 0
12.5 15.5 0
20.0 15.5 0
20.0 14.5 0
12.5 14.5 0
9.995967741929068 24.63709677361624 0
9.99193548384352 24.27419354591668 0
9.987903225752747 23.91129031774724 0
9.983870967693909 23.54838709245178 0
9.979838709643776 23.1854838679398 0
9.975806451588815 22.82258064299319 0
9.971774193518987 22.45967741670884 0
9.967741935433088 22.0967741889779 0
9.963709677331826 21.73387095986437 0
9.959677419249761 21.37096773247854 0
9.955645161201263 21.00806450811359 0
9.951612903119845 20.64516128078604 0
9.94758064504518 20.28225805406609 0
9.943548386962053 19.9193548265848 0
9.93951612887461 19.55645159871496 0
9.935483870792845 19.19354837135627 0
9.93145161272193 18.83064514497369 0
9.927419354633525 18.46774191701725 0
9.92338709656502 18.10483869085204 0
9.91935483848279 17.74193546345097 0
9.915322580408823 17.37903223679417 0
9.911290322326463 17.01612900938176 0
9.907258064267786 16.65322578410088 0
9.903225806182238 16.29032255640144 0
9.899193548092457 15.92741932832128 0
9.89516129001441 15.56451610129687 0
9.89112903193036 15.20161287373247 0
9.887096773848848 14.83870964639635 0
9.88306451577868 14.47580642008116 0
9.879032257707456 14.11290319367111 0
9.874999999632388 13.7499999669152 0
9.87096774157541 13.38709674178694 0
9.866935483520326 13.02419351682927 0
9.862903225484896 12.66129029364055 0
9.858870967443991 12.29838706995923 0
9.854838709394688 11.93548384552203 0
9.85080645134599 11.57258062113923 0
9.84677419328547 11.2096773956924 0
9.842741935225352 10.84677417028196 0
9.838709677185804 10.48387094672252 0
9.834677419124317 10.12096772118856 0
9.830645161077069 9.758064496936328 0
9.82661290301319 9.39516127118734 0
9.82258064496042 9.032258046437814 0
9.818548386911868 8.669354822068383 0
9.814516128856654 8.30645159709885 0
9.810483870799494 7.943548371954425 0
9.806451612739686 7.580645146572026 0
9.802419354698465 7.217741922862086 0
9.798387096668439 6.85483870015975 0
9.794354838615694 6.491935475412687 0
9.790322580551589 6.129032249643185 0
9.786290322498939 5.766129024904508 0
9.78225806445883 5.4032258012946 0
9.778225806418291 5.040322577646533 0
9.774193548368817 4.677419353193986 0
9.770161290304422 4.314516127397968 0
9.766129032236005 3.951612901240819 0
9.762096774198463 3.588709677861742 0
9.758064516136995 3.225806452329888 0
9.75403225807409 2.862903226668307 0
10.11666666610577 2.5 0
10.48333333385953 2.5 0
10.85000000105818 2.5 0
11.21666666867316 2.5 0
11.58333333336224 2.5 0
11.95000000131839 2.5 0
12.31666666820478 2.5 0
12.68333333056934 2.5 0
13.0499999971377 2.5 0
13.41666666013254 2.5 0
13.78333332331241 2.5 0
14.14999998971309 2.5 0
14.51666665948202 2.5 0
14.88333332845008 2.499999999999999 0
15.24107142855263 2.857142857894746 0
15.23214285711795 3.214285715281784 0
15.22321428568154 3.571428572738167 0
15.21428571423432 3.928571430627341 0
15.20535714279942 4.285714288023047 0
15.19642857135995 4.642857145602022 0
15.18749999993289 5.000000002684433 0
15.17857142846358 5.357142861456524 0
15.16964285700679 5.714285719728339 0
15.16071428553705 6.071428578518076 0
15.15178571407274 6.428571437090492 0
15.14285714259704 6.785714296118296 0
15.13392857114501 7.142857154199406 0
15.12499999971972 7.500000011211233 0
15.11607142832301 7.857142867079478 0
15.1071428569088 8.21428572364799 0
15.09821428549156 8.571428580337546 0
15.0892857140937 8.928571436252073 0
15.08035714273443 9.285714290622575 0
15.07142857134667 9.642857146133258 0
15.06249999994795 10.000000002082 0
15.05357142854956 10.35714285801773 0
15.04464285713485 10.71428571460605 0
15.03571428570876 11.07142857164946 0
15.0267857143025 11.42857142790003 0
15.01785714286502 11.78571428539929 0
15.00892857142013 12.14285714319497 0
15.3571428591223 12.5 0
15.71428571719138 12.5 0
16.07142857423201 12.5 0
16.42857142974857 12.5 0
16.7857142846084 12.5 0
17.14285714112862 12.5 0
17.49999999772317 12.5 0
17.85714285297952 12.5 0
18.21428571083795 12.5 0
18.57142855939082 12.5 0
18.92857141386655 12.5 0
19.28571427430228 12.5 0
19.64285713574168 12.5 0
19.99107142854329 12.14285714173175 0
19.98214285710808 11.7857142843235 0
19.9732142856822 11.42857142728799 0
19.96428571423453 11.07142856938133 0
19.95535714282337 10.71428571293464 0
19.94642857136245 10.35714285449797 0
19.93749999989375 9.999999995749876 0
19.92857142839276 9.642857135710214 0
19.91964285692271 9.285714276908246 0
19.91071428546458 8.928571418583031 0
19.90178571404575 8.571428561829856 0
19.89285714258144 8.214285703257598 0
19.88392857110147 7.857142844058753 0
19.87499999962442 7.499999984976929 0
19.86607142823917 7.142857129566706 0
19.85714285687816 6.785714275126081 0
19.84821428547457 6.428571418982778 0
19.83928571407323 6.071428562929247 0
19.83035714264225 5.714285705690037 0
19.82142857123506 5.357142849402467 0
19.81249999981376 4.999999992550225 0
19.8035714284025 4.642857136099819 0
19.79464285702924 4.285714281169751 0
19.7857142856151 3.928571424604182 0
19.77678571422344 3.571428568937625 0
19.76785714281399 3.214285712559351 0
19.75892857141964 2.857142856785682 0
20.11666666646139 2.5 0
20.48333333599902 2.5 0
20.85000000037297 2.5 0
21.2166666666204 2.5 0
21.58333333661485 2.5 0
21.94999999805711 2.5 0
22.31666666291099 2.5 0
22.6833333246655 2.5 0
23.04999999031157 2.5 0
23.41666665336712 2.5 0
23.7833333158213 2.5 0
24.14999998189816 2.5 0
24.51666665379502 2.5 0
24.8833333260793 2.5 0
25.24479166666316 2.864583333578429 0
25.23958333332243 3.229166667430228 0
25.23437499998316 3.59375000117879 0
25.22916666664224 3.958333335042977 0
25.22395833329952 4.322916669033526 0
25.21874999995567 4.687500003103358 0
25.21354166662136 5.052083336505047 0
25.20833333328796 5.416666669842317 0
25.20312499994325 5.78125000397244 0
25.19791666660968 6.145833337322924 0
25.19270833326647 6.510416671347334 0
25.18749999992573 6.875000005198308 0
25.18229166657996 7.239583339402762 0
25.17708333322847 7.604166674006945 0
25.17187499988757 7.968750007869894 0
25.16666666654491 8.333333341856315 0
25.16145833320392 8.697916675725455 0
25.15624999986355 9.062500009551652 0
25.1510416665306 9.42708334285754 0
25.14583333317543 9.791666677719402 0
25.1406249998306 10.15625001185779 0
25.13541666647126 10.52083334701201 0
25.13020833313536 10.88541668052437 0
25.12499999979433 11.25000001439681 0
25.11979166647349 11.61458334685533 0
25.11458333315809 11.97916667893395 0
25.10937499982347 12.34375001235711 0
25.10416666650693 12.70833334451501 0
25.09895833318476 13.07291667706603 0
25.09374999985275 13.4375000103075 0
25.08854166652795 13.80208334304352 0
25.08333333324327 14.16666667297151 0
25.07812499994489 14.53125000385754 0
25.07291666664035 14.89583333517551 0
25.06770833336538 15.2604166644238 0
25.06250000006882 15.62499999518263 0
25.0572916667336 15.98958332864792 0
25.05208333341046 16.35416666126748 0
25.04687500010878 16.71874999238476 0
25.04166666678705 17.08333332490666 0
25.0364583334479 17.44791665864697 0
25.03125000011321 17.81249999207509 0
25.02604166678298 18.17708332519102 0
25.02083333345432 18.54166665819793 0
25.01562500008643 18.90624999395011 0
25.0104166667187 19.27083332969072 0
25.0052083333458 19.63541666579472 0
24.65909090697006 20.11363636434331 0
24.31818181387862 20.22727272870713 0
23.97727272112545 20.34090909295818 0
23.63636362933978 20.45454545688674 0
23.29545454074166 20.56818181975278 0
22.95454545175678 20.68181818274774 0
22.61363635870555 20.79545454709815 0
22.27272726938004 20.90909091020665 0
21.93181817642107 21.02272727452631 0
21.59090908415283 21.13636363861572 0
21.24999999070893 21.25000000309703 0
20.909090898365 21.36363636721167 0
20.5681818062032 21.4772727312656 0
20.22727271532826 21.59090909489058 0
19.88636362288735 21.70454545903755 0
19.54545453222531 21.81818182259157 0
19.20454544067146 21.93181818644285 0
18.86363634917439 22.0454545502752 0
18.52272726008306 22.15909091330565 0
18.18181816691119 22.27272727769627 0
17.84090907624678 22.38636364125107 0
17.49999998161302 22.500000006129 0
17.15909089129634 22.61363636956789 0
16.81818180107666 22.72727273297446 0
16.47727271035784 22.84090909654739 0
16.13636362113641 22.9545454596212 0
15.79545453028867 23.06818182323711 0
15.4545454400335 23.18181818665549 0
15.11363634812483 23.29545455062506 0
14.77272725866684 23.40909091377772 0
14.43181816866006 23.52272727711332 0
14.09090907805834 23.63636364064723 0
13.74999998745307 23.75000000418231 0
13.40909089754563 23.86363636748479 0
13.06818180839043 23.97727273053652 0
12.72727271853859 24.09090909382047 0
12.38636362812021 24.20454545729326 0
12.04545453791708 24.31818182069431 0
11.70454544876188 24.43181818374604 0
11.36363635991656 24.54545454669448 0
11.02272727049761 24.65909090983413 0
10.68181818161208 24.77272727279597 0
10.34090909059876 24.88636363646708 0
13.53936447392977 5.430518861761812 0
13.29549512714208 5.795495130527656 0
12.93051886163336 6.039364473982978 0
12.06948113743464 6.039364473596931 0
11.70450486924562 5.795495126915347 0
11.46063552506678 5.430518859339278 0
11.46063552603309 4.569481138327832 0
11.7045048727207 4.204504869609567 0
12.0694811382365 3.960635526070925 0
12.93051886277896 3.960635526491545 0
13.2954951309342 4.204504873264463 0
13.53936447498188 4.569481140778189 0
23.53936447355998 5.430518862654571 0
23.29549512629944 5.795495131370292 0
22.93051885878755 6.039364475161753 0
22.06948113763989 6.039364473681951 0
21.70450486886492 5.795495126534648 0
21.46063552518245 5.430518859618539 0
21.46063552641138 4.569481137414567 0
21.70450487359473 4.20450486873554 0
22.06948114105052 3.96063552490532 0
[...]
CELL_DATA 3864
SCALARS Von_Mises float 1
LOOKUP_TABLE default
63470159.99484285 75028377.85500965 71522721.50405194 37521821.371084824 53338666.77028804 70388754.59499112 75143345.13937613 44345384.52848113 19739411.35000002 61017398.273088396 25357383.541879825 25361317.7393417 39467860.079836555 75266769.62104571 86428346.58233683 27917924.70934528 58611984.729458675 76710603.66866048 285032.1652692045 59168901.87925975 12489782.218723916 12532171.667392293 23693137.44916041 68087886.9858349 75483910.13972653 70005894.75180586 30710997.52302071 64089203.22319387 72399484.20656447 279556.9779078088 57090006.87538813 70544098.32306872 66749645.0845297 56142626.18120184 308831.5042911631 309066.1032692507 61800896.715255 46048393.87219569 66514909.66993176 70214671.86713599 21287547.59127006 326540.9812914621 21745199.94113647 73332108.97406565 75425223.92628169 68929576.48779227 64606794.1175338 71649709.99891752 46048353.8589563 30259158.022819933 83443169.6148132 14413133.753533259 60728359.6681141 61254750.53189976 77746414.52285485 28042190.363699898 55973178.74935794 324650.72879435646 60383797.35650482 4767759.219675295 63109389.102556564 62186276.62320809 319752082.3320576 164686732.0951383 60180467.957719855 75286616.75773406 59716297.9113045 61226099.132040024 19105181.78416418 41430035.5518838 12910539.721367441 54900843.10238699 14552634.72819529 22892323.63562663 20982504.172208883 31576698.819883544 60826603.40256697 62078511.90187139 59970551.44966252 27055912.608450882 47580432.09120578 345853.3435759048 346000.2898027917 67799464.84686072 42544712.860158235 61126001.54014081 64238529.728258505 56846092.19827552 63159585.57069107 165292613.09010682 58609701.69888378 87187189.86709087 74751200.27802989 72426207.89389963 55565196.60394894 107808065.61894456 53304250.307293065 175674485.1008187 61570542.87576834 66026241.6286745 59912840.96304134 51528780.73203945 55558113.65560893 44788125.090814814 63296960.66443391 11529684.24445435 47047822.6416473 36767332.9861757 36771939.72265924 39559196.155651525 57102521.11909082 134351998.10373372 65990549.75273904 66787637.12930934 41876200.262453124 87113960.29438536 77625347.96956974 30089131.21003154 36219202.17940722 61431283.3836147 68770532.28181048 60737697.35635609 93444386.05181853 55157751.23750043 16961004.52062355 63670218.892666034 32052311.624129333 58533759.33317159 80448348.72825585 80760760.19064891 36722520.52715683 66384317.686545804 50050907.33639354 62741885.403682046 64579802.80639136 16843708.43495032 41864925.158096135 61085121.10435686 57022092.00170712 49398956.94053065 59684977.498641014 27269364.870378677 76246465.61643827 62120040.29453828 49282089.4017599 65095956.67192729 7069272.274415994 11208393.666184237 50813673.19565592 81743538.94977714 60052718.48553837 61241316.29277988 62829489.51885767 39580404.12245784 63693067.45311104 30627256.779220924 55665762.387038074 56712137.18437567 19881802.670625176 53018935.18290228 33824198.53516838 1977511.5629065263 63614976.6783703 14712641.605175829 14687704.571655905 31508393.142395183 50558535.415623695 59929420.99719809 66739551.64896552 62940320.06846447 63899869.44959434 61183247.36623507 40089585.613156706 60824860.9295781 83957001.31490211 17503160.99920625 31433390.394236613 50657656.49602871 50352054.360605195 60249937.406210594 46932139.871838875 46969804.32884833 24806740.23778114 62262066.9171132 21407492.123371866 55437159.61642875 46405414.958310485 82294819.35722145 54753200.81673166 37026002.72610745 17016813.421491757 79128896.50751257 44134643.41940167 65190484.16614324 165590417.73725688 56125862.750550136 8739697.847282683 42897661.2077562 10674601.148929974 10681405.916620519 62023661.599714726 49138433.2482993 44486308.323836 75868495.50708735 61216647.50668483 59056048.22445545 24553785.91174421 48172357.42930969 60017467.30295299 61336354.51242735 72124355.16826802 57166370.91099884 72940909.80481468 60270450.38718601 69930279.08443493 50186625.75592851 51966362.14654842 70757368.95840879 65999057.57130693 73978060.33037856 21038214.378773388 74055873.5642655 61500319.92101344 57352855.83943982 58688314.45223483 166913190.0261133 55840889.0919717 8787363.506148025 8791316.200283105 63642691.05281277 57525190.25426913 40409965.58883623 40719312.58678463 14771033.922047494 59544194.84150851 60687330.42436325 21549459.422080643 49235062.873166814 21155731.328766733 39666271.66933149 33391675.612997912 93827609.13284479 41651789.43370978 55506178.471901245 79204553.30799264 15840373.942327319 39142724.79824298 30443664.11922063 56268049.24708552 56162506.271637194 151435243.42834622 50426358.357811585 28685313.245798256 57616446.1768823 25473831.669017326 65238408.51825139 46486202.63265946 36808696.91805604 14901223.047952896 64393571.22258245 63679359.26419032 3647838.7645784104 46942840.82448648 61806792.64748317 62249032.671434365 28607563.375762526 24850343.658672143 65216873.73533579 95556470.30493218 10242320.464070892 30022302.756444134 67306811.3756043 71183168.76937665 54681392.56305223 64511178.9989758 56147041.850682795 48709864.830901906 84458157.71640411 36170905.0072111 54609211.52718375 6298061.522083639 6279013.572985819 82883893.33154565 57037959.452807985 57288264.76476719 40284936.019064955 648058.38502158 646711.7867970994 81170517.76386683 30308725.615174834 31115636.456495002 70640419.70726743 59921510.20696119 39686787.04933751 20460120.10813969 20306638.82767259 78697296.71263875 67597882.21770345 37608134.5255124 2042646.0565144697 62979712.05419579 46765247.324294195 40707552.18277141 32980638.50669562 22990953.14756318 63208034.31922121 65948911.124665625 62299514.49631265 59022380.52455331 78394170.38854705 60308134.144623116 80399848.03114457 64429004.86571753 20269727.306214664 36234185.94295979 42606796.66996791 61668270.332214855 55638191.078532435 22836987.47053042 71940499.73760203 35966992.75207135 5930360.529542212 51862013.98500757 68982126.94242659 54043879.252485394 65589148.122125335 63031248.12062513 64108063.47768353 2389969.218843557 2391641.027149742 54473257.003951564 533224.6614363153 62321840.77836844 25838148.110184256 58123971.569554366 2423709.4047704567 30778874.740420014 63206373.85678561 522534.6481356184 46044208.78477798 57352966.66734078 57831296.22874732 11824055.923489537 64193783.68629854 50271351.59311756 50303067.67198237 6365796.715563627 61494050.30391347 2385559.1541073876 49986937.156143256 29438258.13139175 96990785.7492695 56619552.4841917 83006903.51479574 4416855.652635 62825725.03703921 56627797.411979906 23788727.906603727 70358757.20190173 43930619.940728165 59897924.23062682 20384438.27100714 52343224.84805513 46703514.220220864 103175499.10720408 6354639.313002195 23117335.86519456 54820823.994249985 91693312.35202572 55375667.51029858 101292071.21064188 50813678.77769376 63636663.09882388 65360950.649195135 20405886.180587705 12749150.790421233 63588154.32220344 62216566.383767605 59532787.782148264 63993815.23828642 58763955.139211476 48031253.74906038 36207458.40924361 49630287.53584095 57168488.77435251 33493525.976149164 16204822.173207099 47254668.414056025 71886684.17137514 4263064.274991206 66766611.29362192 24962105.358019475 59448578.36113413 21681674.38354746 59221384.28176349 63119280.65311331 60300390.09394938 75754916.72494508 65416572.67588666 64360286.27216996 52363810.52786461 42119152.48765692 24894656.386755355 51789598.54391884 4323567.296421126 57347107.84473094 39526204.65485187 65905757.9468795 62373955.40455926 26328242.93403637 18457359.431303278 48833574.68301008 33642299.73213389 31786273.69953671 61508386.694672614 61671258.65450908 70351872.33487284 48397620.33039026 270393730.2689236 42609383.53196528 45289375.10771753 60228463.20219094 59533395.03575195 45697207.452364475 45531591.19489876 64089143.32002893 60924175.16431749 60074135.20257748 4563480.630948787 4567913.627923113 36192878.806837685 51544431.98858274 52272755.909159064 65741046.50743319 68910594.38597752 62873262.77703498 57386453.087763846 61225466.4496295 58802350.20420349 102546399.63959624 1062832.9378036854 72073012.79078974 43468438.28144032 86572209.55821797 33068051.256190654 36330583.55130615 46074908.59271031 763567.4588076281 74150564.06961797 64892357.71588499 31745578.42293305 25669910.104161195 45869102.367944494 25153753.412546948 40410697.768558905 56037099.81571899 59174570.34710438 66962113.137943484 74856173.44193709 62403967.05434123 58648465.66855244 37526073.01937999 56758697.97087106 40494969.9310498 110750033.95227723 45257977.15122191 52589129.046190575 72356494.25774565 61878177.787378445 77842120.4836901 27678334.38146497 21997882.948020987 58400423.40922474 28343600.50446897 26778994.882736396 64245367.16558463 51984745.086624905 39830512.153815866 64333011.856040634 87720534.77007873 74815914.1555174 32098968.61355942 32084155.19161878 63455489.47982258 58605972.97408846 19582914.536683362 67137414.92689726 64417696.20722573 25610019.184462268 65975828.78627179 57389310.839909 32139638.197118443 55193787.0612265 32054569.96878639 47759473.68428957 55633367.34429026 58586832.210748225 68179386.86949098 30794462.89567505 60034006.67446839 57818176.251637146 57520559.63514279 67366851.22479695 44209104.72567193 46979166.172846645 72422655.53033803 10456394.472457742 59670176.74897506 37656100.97230253 80276390.61806908 23567835.748707715 23567835.748707715 59645939.61883473 60851329.790955745 19619741.490403295 61283935.06649151 43495202.89035868 40106690.15758768 40116115.920703955 67100433.358259656 66961845.30020385 60101146.809290245 36116743.55500898 129547679.06671599 63209279.39503622 47949813.22466393 20082590.71059092 33815600.9539988 62503952.44360628 37285893.875396244 62928044.84664066 58142754.00469549 49392538.9754081 19161012.171408396 44186008.34667106 24846393.954148833 40128675.90737537 57339988.49491892 32368555.104406297 91098305.72131684 54374311.25737816 76059377.56465106 61272940.00261271 29080380.801348466 48585748.64510136 2670755.044552742 65466210.121870555 35532609.71641893 63443157.87700345 59503955.18642785 34464147.686110854 67292486.16794333 25121387.17083558 25003441.0357497 50614713.58570521 65200518.92563804 57489574.20604519 47249204.812162496 61925035.81729669 64869410.98129 55567159.512651004 59112341.599397354 53991194.33886457 56983378.84601731 62784100.6685749 52963625.49694788 65130019.071937725 65887508.18682322 34832287.77278575 99796559.66397937 63510244.63072199 65936521.420707874 43808685.13878214 33588129.68407192 116825180.26258972 66668366.538062766 55943360.08237422 53800567.67911377 27908117.539777625 73179799.32035448 46146730.739773564 66439968.932163514 1192029.148304848 68755567.85653058 50333474.81628334 29647851.56285133 70079566.17329097 55433264.232996404 71172319.47382425 43997436.30849286 28856561.307308417 58462764.18479067 50522073.203494556 57277823.37341929 68930730.75478025 33954998.74118511 51599998.64683069 55477758.191707954 59986923.71490398 10733768.790701283 58361558.87837906 1106045.3011003719 1112203.4461707883 55320796.207672164 23222423.312289108 61967265.60867123 52460434.29667612 58657318.54771854 58184453.480589874 13592854.290298454 22105670.300980903 1211080.1070227937 48445609.10909154 27802644.97052923 65244004.62895412 63686762.64347012 25017323.436923776 64431554.69061563 57301511.52587357 41187640.58704582 69103656.72216633 71210402.52356793 60152110.80143084 56259946.187278256 113294739.32363889 4771424.655278272 17438861.231475372 59622943.80080731 57906507.85336815 60927538.257867634 28986156.140655268 62148518.80588829 25658483.108157784 36933503.77184074 108510006.75251046 60301406.75204887 58697341.64433711 18165114.640341 62347096.831864394 126047553.84726523 16358770.775355464 24701840.65497821 170183185.85671303 55071808.94744724 12183535.240742395 76065043.33231919 91303212.25856458 39517262.12407085 8568636.93434092 16165046.708062742 56470430.761627436 43181108.004472375 65796519.38138705 91669321.06160063 31921269.467582397 45846401.58662054 99893218.00438325 30450380.15946359 79310681.4180706 3315100.2541038217 51652148.15168702 47026604.69505074 45711272.74323549 63464615.70229598 49059370.82228196 35862847.706003815 116521480.61102203 2003540.5904136451 48065771.06146024 59452637.00368 47853670.72411061 35548352.93277508 54699096.735644214 47627793.30744208 10451229.667682042 57871257.745010704 24539670.886618476 58397140.20682984 57351424.05261397 68580923.46870454 44913182.063455135 36687015.79196693 25780463.91513909 58259840.11825575 51599245.44711137 114379052.93128373 41729510.684160255 82315641.45042774 59595965.488743655 56166726.01674598 63252361.49226558 64189828.16758879 81871877.40130141 49299304.22498707 35668352.70936935 58777061.74561918 25772260.37033627 51672978.265498355 62018687.67234517 23157755.146150094 66244046.42750226 59706436.79813126 68933824.7356779 66780907.46032835 146690558.60772407 4856091.453739861 63685926.088632375 57436158.28566597 63506415.64774722 10614656.866302127 60577046.44605776 81430795.93699753 13879213.807523148 13883923.464970853 57815814.0454525 88751469.45940858 10593381.27931919 48200148.17497247 5987717.729585826 80582233.52032289 40839894.8957448 58587758.51414146 50383455.164052695 4218480.650702517 51703031.323616445 57614231.67446639 34176853.26449441 46591166.385753036 59106806.38963613 13247302.699339112 49393553.75955601 137662462.27309 13881821.09823219 13244693.227197578 13867825.301809568 49723533.8783651 73306494.56434204 82563771.7266809 60271355.76656217 71590977.33614984 62991672.13194236 63897871.61281957 28081035.240909677 10332400.111874146 42325647.338791534 21343461.624543265 22209890.688090157 62740429.13270592 55833539.20570903 68221990.53992952 12857467.743072666 12806165.281846076 65327697.96423211 63451644.95817093 41856867.838424064 62482731.73394432 82603995.2394837 62395538.42084639 59649794.928553015 65531522.26812066 6903944.907926639 23134687.77177005 8450671.261653373 55095347.25163382 41850534.93630828 69826451.83564247 104169121.74572402 53345274.143555455 55860230.82305372 61990153.413462766 116959774.05642577 49109597.81150942 56127391.08264581 87057926.54737788 32346040.83693625 49537907.75637996 60121807.54622704 75939880.31076494 59714298.43258473 117586435.81580512 70062170.99886136 62975351.77205005 12931496.738886736 51435919.20692498 107853225.47150882 19738113.63390476 5171131.8969207015 68416113.47602163 8101887.07842219 64542224.26555889 8414427.850405538 69154137.30306384 71467436.07662113 58744038.08121764 62285267.994276434 85270641.51411508 60511939.55948181 46785183.263241254 47840601.67450146 68583854.49721235 60000847.909528844 61289069.43944751 60433838.015070714 97376194.01219118 59259648.866904534 31315321.768215355 59694117.81744812 55053314.93837544 21647349.562076043 50650790.57429621 29213556.155987725 102611103.28683138 99411406.51117352 61501222.13405506 89422220.11248599 57356358.44343571 41660275.87873043 42877785.940447144 28116518.330277737 33800320.22813042 25489178.84907901 61943522.454686075 69498290.57988657 12853046.362861082 74663277.83261892 62738316.73445555 56848817.65028783 50651072.18189234 62219607.283037715 47065986.49786274 66844460.900464475 63435737.469446905 52288256.97357594 84121217.9979541 59001036.05027107 59116180.79635454 61491763.49506614 39103336.04601661 78021903.50732504 20567655.426198203 62840779.24897497 91786025.5416272 33287074.034752194 57274488.03653996 60001715.10081134 43219508.77751353 33288482.335765727 37635282.009167485 4401652.189850863 64800871.85807993 60083392.85190627 66953074.75912052 57381668.75980262 117745487.90555099 59583098.63147101 51198929.8313683 64292431.930484064 61944238.184631445 32658491.192874197 10741324.061056932 60442205.569492 66105509.740975626 65250556.013465345 4379272.75464463 97673589.87454076 51236396.60726191 21290724.832489956 41087202.61946345 59075165.14154008 54406995.87775775 124844315.95153928 59534066.3182414 57867509.87584443 22619955.555599194 63254093.589907564 76918891.16999657 100297519.80163953 69317734.99386783 51928693.86151632 68831627.5099673 88493964.84656462 71112304.33244628 52928009.028309844 4328536.86550901 47984521.70954614 81347810.51131013 60783121.94958352 114377569.58083497 27808547.102117535 21229878.678473484 67661046.43301381 60099432.44105752 14427622.991169373 109591557.61103833 18863190.734798744 68719655.32468803 37402344.788736306 80939750.71253167 81200049.56791422 47952933.529604934 90666241.24392529 21254924.126663532 65740795.89915527 63209392.854422234 13652138.804776208 5602712.69218858 5629946.080978923 62718390.248250805 42765690.28869539 60970424.401467964 48351049.871504165 10049207.784794891 10046807.194271967 66202327.43154024 48983816.20568555 21454768.85229016 66446488.49669003 63390593.341315955 63313738.885800935 32917380.8385282 53728736.47375757 58384160.86703323 66064983.073555805 76694133.43358463 57082706.10103366 22060626.387738697 87885306.40921278 58449097.2091925 53235370.75266991 55342706.30587012 61600457.430222936 19357126.44425981 62923109.77017582 131363098.78412347 16882847.00265163 59742669.062746614 65188486.62339747 74833516.23846245 22552734.144853055 100806642.20688532 96320990.75506145 58046112.95024037 55538097.75316933 55808076.65139672 74653590.85042 46988641.85051829 75496482.16810352 58652242.90477551 55884804.66770385 70558711.91235912 26897901.510646276 51111547.85303071 70386140.88061123 67405349.80563095 37145551.49278735 69926668.43311541 29290401.822579697 75330832.13414149 29653418.789956164 58038537.74439189 63530526.93903269 61764406.505002484 38955682.938962616 36860915.04839985 57196066.97964676 45470084.60628045 63552663.26832466 56129057.42995996 58685789.12978515 61756641.61455889 97141086.58835612 64301483.93252703 60341914.62137416 57592402.34443941 66930588.42665687 57392221.235672735 74664022.08314279 65377170.00449187 36005316.70703692 36099342.94088947 55893349.78445014 51003287.14654697 73328794.01771869 62404090.81644837 83010273.91642703 58731761.910391055 83447378.40968886 57082831.90257724 61915260.51280554 58443442.5897964 64323539.295544416 9185507.565576259 64657154.38913978 59964838.57786581 37397485.64638755 45899559.133435756 58073976.09411457 38367766.46748047 5716065.170411407 5638910.121382691 66572998.14157245 53901922.6217762 63516133.96458736 26013278.137483116 47633714.293663345 182184366.42256168 31936852.007368986 86161824.47517705 76324448.2990459 25823891.047987398 53310111.640692666 98778653.44334179 57406629.14869711 49042172.11289648 59066301.52858423 70993462.5074709 83362470.089263 71083926.80427586 56460388.381071396 58430487.78811471 84974500.48039417 25939346.19694592 57560933.83563742 56005732.297274895 15341492.12287252 57684565.36636883 56134904.85295738 22186094.66548394 41674021.8320091 46104249.905380115 47025781.09948272 54497094.31309136 60789024.93474067 63210074.15672477 67640286.45297484 54397932.27797575 76471871.17124215 33280354.439743944 15773297.702164927 47187176.04074916 49314961.890699826 55112126.740279004 67866782.08256032 43227200.78164027 37093643.52793264 65567441.79975529 45585856.05067751 33548331.77256224 33557035.04714118 46891545.96890088 36381350.095772885 36416886.648511805 83422292.9495978 29885788.015167017 29892881.82282102 57090394.33828646 56180485.093063526 73285405.02974442 64403856.302674316 60535986.01428361 70246060.8495982 51893175.03400809 10355181.27862652 35376009.5581909 32040028.318244636 53369318.881499045 48037752.09302226 54652040.3953936 46298908.271732606 37139909.41469826 12595689.708083313 75150166.99687457 33410272.073277917 58682764.45714246 5750.03694170226 86113663.84327328 58032396.945583686 51306752.48357667 65352156.518955864 63613382.45877872 69439499.06014936 70394504.3186543 30961798.224357527 46522421.79695414 66230852.441787995 63993317.46020293 57754244.853733666 91930844.63872229 16802400.517557744 58563846.67086001 46931982.40416414 4649826.831731074 4627044.682238205 40119060.4143755 8171