# vtk DataFile Version 2.0
Really cool data
ASCII
DATASET POLYDATA
POINTS 2242 float
10.0 25.0 0
9.999999999999998 2.5 0
15.0 2.5 0
15.0 12.5 0
20.0 12.5 0
20.0 2.5 0
25.0 2.5 0
25.0 20.0 0
13.015625 5.0 0
12.5 5.515625 0
11.984375 5.0 0
12.5 4.484375 0
23.015625 5.0 0
22.5 5.515625 0
21.984375 5.0 0
22.5 4.484375 0
13.015625 21.5 0
12.5 22.015625 0
11.984375 21.5 0
12.5 20.984375 0
23.015625 17.5 0
22.5 18.015625 0
21.984375 17.5 0
22.5 16.984375 0
12.5 15.5 0
20.0 15.5 0
20.0 14.5 0
12.5 14.5 0
10.0 24.63709677361402 0
10.0 24.27419354592701 0
10.0 23.91129031775874 0
9.999999999999996 23.54838709246676 0
10.0 23.18548386794702 0
10.0 22.82258064299358 0
10.0 22.45967741670554 0
10.0 22.09677418897655 0
10.0 21.73387095986818 0
10.0 21.37096773248194 0
9.999999999999998 21.00806450811888 0
10.0 20.6451612807928 0
10.0 20.28225805407666 0
9.999999999999998 19.9193548266023 0
10.0 19.5564515987474 0
9.999999999999998 19.19354837138494 0
10.0 18.83064514499617 0
10.0 18.46774191704055 0
10.0 18.10483869087001 0
10.0 17.74193546347678 0
10.0 17.37903223681661 0
10.0 17.01612900940379 0
10.0 16.65322578413419 0
10.0 16.29032255642479 0
9.999999999999998 15.92741932834607 0
9.999999999999998 15.56451610131936 0
10.0 15.20161287375545 0
9.999999999999998 14.83870964642377 0
9.999999999999998 14.47580642010495 0
10.0 14.11290319369939 0
10.0 13.74999996694269 0
9.999999999999998 13.38709674181718 0
9.999999999999998 13.02419351686376 0
9.999999999999998 12.66129029367583 0
9.999999999999998 12.29838706999966 0
9.999999999999998 11.93548384555825 0
10.0 11.57258062117281 0
9.999999999999998 11.20967739572134 0
10.0 10.84677417031325 0
9.999999999999998 10.48387094675739 0
10.0 10.12096772123179 0
9.999999999999998 9.75806449698064 0
10.0 9.395161271231192 0
9.999999999999998 9.032258046482013 0
10.0 8.669354822118947 0
10.0 8.306451597138944 0
9.999999999999998 7.94354837200364 0
9.999999999999998 7.580645146620729 0
9.999999999999998 7.217741922905391 0
9.999999999999996 6.854838700199402 0
9.999999999999998 6.491935475456518 0
9.999999999999998 6.129032249693084 0
9.999999999999998 5.766129024955096 0
9.999999999999998 5.403225801332082 0
9.999999999999996 5.040322577682138 0
9.999999999999998 4.677419353225353 0
9.999999999999996 4.314516127429037 0
9.999999999999996 3.951612901263398 0
10.0 3.588709677867029 0
9.999999999999998 3.225806452333023 0
9.999999999999998 2.862903226670315 0
10.35714285661005 2.5 0
10.71428571213589 2.5 0
11.07142857046827 2.5 0
11.42857142735092 2.5 0
11.7857142850142 2.5 0
12.14285714287573 2.5 0
12.49999999995663 2.5 0
12.85714285391503 2.5 0
13.21428571211111 2.5 0
13.57142856468173 2.5 0
13.92857141917294 2.5 0
14.28571427871344 2.5 0
14.64285713891684 2.5 0
15.0 2.857142857852235 0
15.0 3.21428571521503 0
15.0 3.571428572726516 0
15.0 3.928571430603533 0
15.0 4.285714287978719 0
15.0 4.642857145514987 0
15.0 5.000000002580401 0
15.0 5.357142861368146 0
15.0 5.714285719647869 0
15.0 6.071428578485179 0
15.0 6.428571437049889 0
15.0 6.785714296048281 0
15.0 7.142857154135942 0
15.0 7.500000011102228 0
15.0 7.857142866965729 0
15.0 8.214285723560286 0
15.0 8.571428580253976 0
15.0 8.92857143590683 0
15.0 9.285714290295818 0
15.0 9.642857145775196 0
15.0 10.00000000179977 0
15.0 10.35714285775001 0
15.0 10.71428571439413 0
15.0 11.07142857145955 0
15.0 11.42857142775673 0
15.0 11.78571428532397 0
15.0 12.14285714320719 0
15.3571428591223 12.5 0
15.71428571719138 12.5 0
16.07142857423201 12.5 0
16.42857142974857 12.5 0
16.7857142846084 12.5 0
17.14285714112862 12.5 0
17.49999999772317 12.5 0
17.85714285297952 12.5 0
18.21428571083795 12.5 0
18.57142855939082 12.5 0
18.92857141386655 12.5 0
19.28571427430228 12.5 0
19.64285713574168 12.5 0
20.0 12.14285714165368 0
20.0 11.78571428436058 0
20.0 11.42857142737726 0
20.0 11.07142856955135 0
20.0 10.71428571316279 0
20.0 10.35714285484745 0
20.0 9.999999995955926 0
20.0 9.642857135639455 0
20.0 9.285714276871845 0
20.0 8.928571418674213 0
20.0 8.57142856231663 0
20.0 8.214285703660536 0
20.0 7.857142844508807 0
20.0 7.499999985406642 0
20.0 7.142857130003156 0
20.0 6.785714275659092 0
20.0 6.428571419530735 0
20.0 6.071428563699761 0
20.0 5.714285706611115 0
20.0 5.357142850049079 0
20.0 4.999999993527312 0
20.0 4.642857137101577 0
20.0 4.285714282125578 0
20.0 3.928571425551149 0
20.0 3.571428569906041 0
20.0 3.214285713520577 0
20.0 2.857142857692707 0
20.35714285650163 2.5 0
20.71428571178895 2.5 0
21.07142856795603 2.5 0
21.42857142687388 2.5 0
21.78571428441634 2.5 0
22.14285713997626 2.5 0
22.50000000002168 2.5 0
22.85714285703133 2.5 0
23.21428571221953 2.5 0
23.57142856194335 2.5 0
23.9285714186928 2.5 0
24.28571427764782 2.5 0
24.64285713873408 2.5 0
25.0 2.864583333579086 0
25.0 3.229166667418379 0
25.0 3.593750001170938 0
25.0 3.958333335039145 0
25.0 4.322916669051911 0
25.0 4.6875000031225 0
25.0 5.052083336528115 0
25.0 5.416666669875903 0
25.0 5.781250004033231 0
25.0 6.14583333738102 0
25.0 6.510416671422698 0
25.0 6.875000005290905 0
25.0 7.239583339506053 0
25.0 7.604166674125976 0
25.0 7.968750007979722 0
25.0 8.33333334199249 0
25.0 8.697916675860695 0
25.0 9.062500009671076 0
25.0 9.427083343134518 0
25.0 9.791666678332678 0
25.0 10.15625001249001 0
25.0 10.52083334768817 0
25.0 10.8854166811516 0
25.0 11.25000001496198 0
25.0 11.61458334738459 0
25.0 11.97916667946025 0
25.0 12.34375001292369 0
25.0 12.70833334511499 0
25.0 13.07291667765324 0
25.0 13.43750001088538 0
25.0 13.80208334365493 0
25.0 14.16666667353327 0
25.0 14.53125000442354 0
25.0 14.89583333573303 0
25.0 15.26041666500421 0
25.0 15.62499999488256 0
25.0 15.98958332836045 0
25.0 16.35416666104326 0
25.0 16.71874999219373 0
25.0 17.08333332471754 0
25.0 17.44791665847009 0
25.0 17.81249999193352 0
25.0 18.17708332505002 0
25.0 18.54166665810869 0
25.0 18.9062499938851 0
25.0 19.2708333296615 0
25.0 19.63541666578485 0
24.65909090697006 20.11363636434331 0
24.31818181387862 20.22727272870713 0
23.97727272112545 20.34090909295818 0
23.63636362933978 20.45454545688674 0
23.29545454074166 20.56818181975278 0
22.95454545175678 20.68181818274774 0
22.61363635870555 20.79545454709815 0
22.27272726938004 20.90909091020665 0
21.93181817642107 21.02272727452631 0
21.59090908415283 21.13636363861572 0
21.24999999070893 21.25000000309703 0
20.909090898365 21.36363636721167 0
20.5681818062032 21.4772727312656 0
20.22727271532826 21.59090909489058 0
19.88636362288735 21.70454545903755 0
19.54545453222531 21.81818182259157 0
19.20454544067146 21.93181818644285 0
18.86363634917439 22.0454545502752 0
18.52272726008306 22.15909091330565 0
18.18181816691119 22.27272727769627 0
17.84090907624678 22.38636364125107 0
17.49999998161302 22.500000006129 0
17.15909089129634 22.61363636956789 0
16.81818180107666 22.72727273297446 0
16.47727271035784 22.84090909654739 0
16.13636362113641 22.9545454596212 0
15.79545453028867 23.06818182323711 0
15.4545454400335 23.18181818665549 0
15.11363634812483 23.29545455062506 0
14.77272725866684 23.40909091377772 0
14.43181816866006 23.52272727711332 0
14.09090907805834 23.63636364064723 0
13.74999998745307 23.75000000418231 0
13.40909089754563 23.86363636748479 0
13.06818180839043 23.97727273053652 0
12.72727271853859 24.09090909382047 0
12.38636362812021 24.20454545729326 0
12.04545453791708 24.31818182069431 0
11.70454544876188 24.43181818374604 0
11.36363635991656 24.54545454669448 0
11.02272727049761 24.65909090983413 0
10.68181818161208 24.77272727279597 0
10.34090909059876 24.88636363646708 0
12.86460193220061 5.364601935898014 0
12.13539806564783 5.364601933746452 0
12.13539806779939 4.635398064101986 0
12.86460193435217 4.635398066253548 0
22.86460193304701 5.364601935051613 0
22.13539806478868 5.364601932887309 0
22.13539806695299 4.635398064948387 0
22.86460193521132 4.635398067112691 0
12.86460193226812 21.86460193583051 0
12.13539806566697 21.86460193376559 0
12.13539806773188 21.13539806416949 0
12.86460193433303 21.13539806623441 0
22.86460193292542 17.86460193517321 0
22.13539806482679 17.86460193292542 0
22.13539806707458 17.13539806482679 0
22.86460193517321 17.13539806707458 0
13.0357142863834 15.5 0
13.57142857334916 15.5 0
14.10714285783675 15.5 0
14.64285714470339 15.5 0
15.17857143070267 15.5 0
15.71428571720997 15.5 0
16.25000000702564 15.5 0
16.78571428904744 15.5 0
17.32142857412979 15.5 0
17.8571428511085 15.5 0
18.39285713616606 15.5 0
18.92857142211578 15.5 0
19.46428571101452 15.5 0
20.0 14.99999999601014 0
19.46428571160309 14.5 0
18.92857142040583 14.5 0
18.39285713577575 14.5 0
17.85714284336419 14.5 0
17.32142855637984 14.5 0
16.7857142655791 14.5 0
16.2499999775787 14.5 0
15.71428569556309 14.5 0
15.17857141150299 14.5 0
14.64285712475407 14.5 0
14.10714284117721 14.5 0
13.57142856006613 14.5 0
13.03571428124737 14.5 0
12.5 14.99999999867727 0
15.41980665501261 20.41849193247834 0
12.74938305731336 7.704838830014981 0
13.41868502526956 18.72278235416465 0
20.56318324480378 15.05033313885141 0
11.30429764785485 14.42126388473336 0
23.00144715065937 3.382087466442355 0
24.58122313803725 9.0514954930442 0
17.2019611146112 21.18251614005223 0
21.46826800364537 16.7058838493587 0
15.40536736833206 21.40453599718661 0
11.6560455233812 8.263768405332604 0
23.25324747581664 5.343721306183667 0
20.93856486387202 20.97726001589274 0
14.63109428348787 19.2692925174914 0
22.78217763033484 9.40609260271339 0
22.2500047291525 7.705045178504822 0
23.4361340074204 19.83029490508527 0
20.78054153428364 20.68270532758896 0
24.64256136076269 3.278777724555763 0
23.03362118254289 12.29491697362919 0
11.21926106630527 7.225833725255179 0
21.07374114521554 13.96297876780058 0
13.39109013747239 21.71189103889487 0
22.2282982904073 10.71161414545826 0
13.127456852534 2.790459218432689 0
12.17746595128304 7.802063322126698 0
23.34239471673601 8.2647858423186 0
10.37050070275211 22.55125738861871 0
18.96774335351016 17.58813541546175 0
20.55283624870124 14.39333547253263 0
20.25146421364067 10.18519978283979 0
[...]
CELL_DATA 4176
SCALARS Von_Mises float 1
LOOKUP_TABLE default
9406687.624539139 10845244.603275165 24584768.4232752 13285421.623073924 57060744.81963985 57042765.918551974 55850909.42762369 32470534.196613636 31108236.214485925 33641333.35322742 32475492.432296332 47173216.99357805 31747367.52278064 31983380.058616035 23154775.16589168 20551777.893312104 32047181.508621924 26362077.74015838 22488745.948923018 36963467.3497873 20487559.65055353 31016301.28031087 630413.3036541934 31743789.069646236 24104504.28451183 31706254.970246345 37721853.48456575 19994325.280250795 36842876.914585404 3280153.9279398993 12417502.954861598 56559365.651662044 14085808.34638067 23320104.750244267 661263.2552219529 25136481.683532014 3438286.0821395745 22861154.214817964 46292834.79246434 1246640.6465286294 20643971.363161497 15627217.993288575 98532318.96307062 4502153.200247397 12526782.933999885 40779749.226188764 12412632.63814382 20548729.50221268 33634823.75725544 16911109.4630954 9596438.899968382 9707004.026023973 30896672.605104707 27146217.840060726 13065622.780346924 27118549.869770873 34265505.0590786 31635964.372410174 10121678.817972282 9018471.284347154 35973626.01072063 31591158.23908338 13104916.661292048 25373951.741620813 16315457.414718768 25322795.457019348 28225009.03066166 1748706.4006891376 12816497.04514899 34019209.786445454 25632194.238381535 11224022.20853667 26519328.44168186 23718536.006821334 8218226.476378857 3607156.3353012684 3423897.4750161963 12588948.172802128 20386607.00307704 3217435.058993169 12812435.469558079 27595456.099699285 2998951.2697056294 27607864.575993378 33430109.265840746 32034516.95445553 33046445.52853533 34028344.359755516 11308462.416017335 34861672.66729617 15795660.975125361 29439298.387405355 33647597.608282864 28589199.998915702 12663290.485508297 11347946.710542243 50003402.68083101 30500837.223909993 31067198.921980377 3653990.071923886 50006559.89896199 28604180.871134207 6452847.858425542 10304414.403601127 28677196.103420496 30100388.9861856 32961336.731655203 10564292.939789353 3666430.081551776 3910750.02477014 61318958.279898986 32306935.26001968 2885874.1093358207 26972114.864681017 35403887.77530349 22726866.991305906 15355353.734392105 9078967.492378926 28738212.43377614 42907313.936366595 12410136.886215687 23099702.08335137 15034037.234873539 32640693.856344573 32598220.106878847 2201171.6450101556 9223672.378057832 15206090.116556505 74347220.14266755 3815220.2048739316 7836133.41899523 44259250.63384584 53393833.54091382 18812792.407757707 34235724.89420707 22392845.968475245 32630404.214740563 13861145.435753549 10147267.892037073 67565554.78640383 44302238.725855514 26944420.506282877 41320705.48825926 29527122.018924117 22422166.45765032 34717811.851617396 31270643.487272892 34089654.7697568 25889799.547970936 1858021.2158395643 34612451.11576089 465057.40887869935 20493952.4020949 14049114.34433707 27492497.605649997 38176919.4047412 32657940.075242896 28001237.052918777 4744945.67630727 24495754.802034892 31864442.379007503 31578196.416526716 33574465.0280853 31988047.330344006 3155223.992898776 13348555.242072614 39662304.390351966 36224077.765346155 5184603.039923005 14654724.136646193 31554946.09592004 34984726.41726733 73007360.45973432 26767448.354166683 38402425.327027224 31923853.023123614 31863021.931045726 5069169.5175496545 29707011.392460607 18386611.807873804 27875483.120385684 23166518.219813038 58326706.956781134 32027514.726636097 28229735.904333312 25275458.81367647 31906816.880360387 30712017.82382589 4794753.872776788 5023234.725971882 20900454.850409064 29135741.352146424 31827029.602966946 30313382.942226492 26781654.404584665 32030249.443755757 14249711.720533593 22833679.725982346 15661993.732930593 61459037.471636415 37050048.164793685 35643034.42087993 23247251.871186458 12664678.561343264 36738835.08495741 61464005.946939975 9627124.799891576 29736290.561358623 30112799.69764975 19358193.609761003 5076648.459404285 19302914.46287412 21045412.586611133 4429485.853206222 30515422.75293412 5240399.991386391 5246677.458625165 31520766.2901308 8415741.986921823 23710855.738013104 22899989.504832704 31679647.21110457 33580847.98224663 12777949.04189915 22229750.085584007 12057315.991486292 22187783.885907788 26712811.233706072 12655671.373040643 18274498.760720525 32939136.982879505 15072684.711622631 30421362.58753212 18020444.177976955 32385481.29234196 13224599.918090982 39224629.95221052 11242829.173453912 18013251.956092246 15024790.687362539 23576248.29890592 26173378.170479108 23530294.965348728 26315985.540744912 33834632.83536818 19677588.30198244 9967286.2056269 28149656.15023193 31196111.034243286 43975385.65326757 32311241.837341774 23305857.048865728 11044451.803183217 44040479.660723634 24635256.40193486 31647509.67290907 31924022.477373134 13739156.24087268 19735499.595940486 29217193.920209706 16794022.148670435 30324220.588291883 10603445.315326652 11378675.54292683 24481111.436377645 28874001.751135353 10745549.687636325 21448968.03156771 35022252.25639873 8353012.780595077 10147635.878593368 80027427.7798539 32112864.248395078 35462358.05528405 26219928.2951197 2626356.752575229 6564150.207365009 36647498.812988296 30760879.6402061 34970981.4898258 32409472.594877183 3799062.2046019537 8197876.031969152 32085390.471512742 34474509.50297225 1066846.2805538177 23421534.171897396 45223774.52581104 35609401.90917339 41646580.58487366 29072466.22632673 8236597.964936032 8842141.74328656 2713777.613833576 5289770.111410306 24003291.22585089 28333540.903935764 30482765.4406056 15233718.125658395 32991620.90042537 4331492.9548919555 30481148.545900416 3790718.440529099 22839281.306026727 27738067.59672772 40120381.29478417 22143203.2950564 29023626.234408937 46028445.8790632 34784074.39595212 30472903.511269294 10916375.812281953 23450557.313524883 8329407.225318887 29351695.04597884 9167661.075698785 29519780.448021397 29366899.234251115 31123107.496160924 25382749.77672421 7146207.734720657 2708048.1601712187 22959320.794048406 13923087.817078777 8937734.241465535 35283216.68017762 13023482.847104587 20473519.36197164 61234832.74235719 32157661.094193187 14785287.14042044 25301212.664776474 23659253.134488925 9598276.230958031 31098617.291720934 15462164.572568929 19684630.821417667 31604186.019518964 24866619.629491374 20105672.384019945 10974984.800707044 13686125.35634134 13147518.658004066 24635585.966545768 46063003.69586627 11990594.44558326 8862372.275177198 29347715.21889315 37068550.52846836 13151549.955828005 29423781.887914255 31941615.40594581 8149237.008901764 32561054.09811955 8186277.835838473 34476052.80775963 30474313.83710499 34607629.21466158 40468565.45196279 36486260.910265625 34052746.18323319 22843883.67646081 32056043.14696402 30607605.1010568 11741783.403818287 31867361.80828102 31261347.911097936 43711306.921144664 31740032.154800024 30613710.289547946 36853271.650821246 19942467.959472757 28260460.50653633 28481759.376230035 31608930.07230971 33750576.24374941 8805656.362952618 14807172.674078587 32187192.069750864 32002141.87107986 13683369.35966597 14299664.385178816 8875821.01050694 50953716.06066216 77427035.3702177 18299235.47207475 31713111.485537067 8287874.159277986 28731305.442453295 15676059.75785434 27360642.95774668 12130372.909484709 28602847.784263365 39882397.54883927 24154823.467418805 24859170.715171505 15284915.87481023 33813278.89303193 23195120.01028016 44704197.1448333 32054334.006545726 19472626.505033433 44736735.89132136 19445835.33910136 19558934.38051377 30464256.580095403 14461337.464343954 32516201.10573856 43544665.73967881 6972111.580858173 12437558.67700227 51035202.69054416 15347949.854028156 51004279.23524498 32290485.56155052 23729448.789255183 20138906.831942767 20000494.121597998 12610963.63660923 23403083.081343688 15005649.430914303 35326426.085006095 8677540.19924226 32051055.590826888 14696369.424618656 31677583.23050314 10302584.83810648 10321987.56483018 23502114.697655592 30556801.680287164 32682579.304512892 33508375.04238726 35710558.71822385 19311865.15827429 12872830.306112899 31900383.874856226 31911067.664530132 31817807.816787537 45366893.68718617 14883647.654040694 32322737.992464285 23001770.03016544 21202489.133754466 32293374.804039776 32654913.868004553 19722578.5791818 60166732.97522398 55500748.98662579 61487131.97482856 55492174.23913096 33243500.836364787 8750771.308761446 15553928.969377201 31734084.465614833 30455447.975546308 20006153.370511923 14194317.494684195 40398301.698256806 8945216.377274098 41315191.93308489 61480272.43616617 7368614.280321824 26136917.17375189 2601149.703842086 2163194.5006314213 10372077.70386491 10372077.70386491 3774917.7732907464 35473277.40820396 27854025.871433113 32403435.996968213 33741432.01429468 33609722.86274121 18771999.73670035 4380211.130230573 32423156.241108697 26535067.18181224 12891121.327545876 10451970.753047151 31729999.536750723 30916947.600217845 2601359.670964727 15618536.211178826 27924937.84788639 41142552.11907481 4829825.2321854895 20123099.317656144 27910818.96340439 17552441.885378055 5320150.244250272 8253035.726201583 23915032.328823514 47282513.266965896 34052192.09469906 27290878.026232116 9288556.665603876 25150488.76915876 42575045.32372753 3656620.50858704 8476910.373360945 27796189.479735184 23245132.28350298 23342079.78177964 27792912.72075675 11912476.296047142 6620971.844505221 11924226.406162186 26934809.606991492 42534619.98295484 8907365.826198345 4482686.234938623 4560035.025036067 20241524.066050474 17679116.666407667 30364339.77880353 17460345.460567337 9886617.161163121 33168810.89859841 40378533.61658207 9055360.594810845 35088497.605484165 40400947.38973656 19821638.15030162 21947195.772693124 34699763.955993675 7406780.436970936 52651588.26227674 33270323.08506521 27723449.388926547 40420175.1356196 40289244.335896194 2547175.909134674 10630625.161346003 16500411.697787905 18585349.94743631 16849418.159581386 437070.8886275648 21111764.115192994 40305692.28494059 11495992.44707615 25721458.40569277 29596765.56761215 31567553.467766404 37097234.61599363 35602586.19045809 24561438.771894775 33072433.231911104 8892425.399632454 32500412.722689677 45555351.995354824 52956899.751711115 45105817.2876837 37643657.75447512 1934261.3276031401 45518497.18907623 4605548.87595213 31875180.76426913 22049738.4441513 16264418.879260737 41802202.262550265 29770532.094892185 11043771.020953685 27407380.205762736 14333613.385013029 32062987.94335265 34911235.7463976 37418305.56741141 24141233.55532237 24779829.507345933 25046056.53420879 24757480.27823471 2484898.662353111 20183077.56627554 7870066.737437723 13808296.113950215 13248133.941898167 28465945.024035405 31008397.808448207 40251018.68669192 30995501.515912995 37621411.39164018 20091697.628927257 32168421.942121867 5973428.670699206 13644834.557865107 8936334.96903687 17184238.279369522 33575904.99107128 20963364.29106206 5296024.3578610085 36495315.06601233 32003073.18640716 2981371.8096250817 25584956.30749166 2995503.560306326 33112017.32909903 3075496.6289054127 34284957.48840941 12775724.934860589 26611495.414166555 33548308.008269683 33818818.95284739 1920156.5057735916 46120227.19900097 6567349.32337524 20375570.524631355 38435735.29581012 25915286.368729565 31260717.057963323 11660718.749775035 27258803.08628215 761872.3599001104 8513514.094741603 35722525.57645054 11847477.92881255 18613975.859313443 6538436.283425834 6566414.989030516 21692351.437107008 9284759.995408885 36685929.973449126 24093059.81229075 8309392.183128139 1938197.710676878 35672664.80687626 34442449.869785115 44993115.31598096 39576446.19745869 30989309.05785115 50540112.71348386 35285978.941567354 27419998.268612824 2638078.788585958 23126900.398996532 31635300.11645064 19434286.84831149 13032013.845192023 33620417.10376348 387190.0944697413 36231875.05986891 25863348.5112813 30598113.851141732 26927071.29705197 26080820.718206435 20007982.9858746 37527029.33910148 35752915.07429855 29043787.382116344 57125020.23480423 1946530.1361327316 32214830.411713507 25084505.77579461 28356771.072846934 37102899.35628699 32754503.924308136 1564002.331463506 23452934.630362112 12748533.265455134 11838320.19229871 3984407.6373466733 26920671.40680327 37306196.91723522 7196907.353314396 34549862.7320231 19649386.75995219 22307427.678602103 33263313.19162625 695407.3887814962 3128104.2101273118 31699208.93696778 37212965.311182156 31034631.532431513 15814591.047016194 32495597.873304047 5949561.0325660845 31926816.339299005 22774515.30104519 38640341.5352698 19665831.215838764 24293432.82855509 30512055.529370002 5915226.879121951 20015021.753234275 32914891.07903723 31575943.124148082 31287330.837887943 41784812.56410709 29571616.205236055 15051123.31058399 5921084.343919868 1061250.3027650423 31101975.766703777 39024850.488455355 25076716.224737365 2349933.650512366 9103590.39470027 37831729.198314816 46085942.59960371 32792458.74097538 32184950.520580962 37830301.711844906 38539358.25186988 11454141.991793698 7241274.830889267 18092494.08546741 12579036.811675344 23350068.35110882 10823867.646834895 35891995.3374461 3216262.164934426 46025325.65419152 44703681.596798256 49818324.13962679 33126644.192233153 26311979.5369743 36012763.107863575 31092082.353547867 1761704.1842212817 13739425.377795858 33522791.6389931 31587449.35503359 48537624.544321425 24989327.678110335 25444059.431707293 33116014.191902164 30999848.55216397 14758781.065721035 21864165.356705382 31665534.22352651 32760529.76931596 48507077.26652826 20061356.128149617 52720275.938407816 38491678.23760342 52598583.53261376 11370943.044005541 39987939.01452923 13958437.80519928 34423544.33934532 23384316.184423484 35536131.501364455 61923781.92280318 30916960.29491865 33733553.73420262 28971868.82488863 42334343.09458522 35455991.6636628 30347713.856191244 20852027.07685258 1767123.4438408779 32070397.199816015 20338259.227274034 23751376.643618546 32431988.90900798 51419020.851545535 20004214.316548433 17226844.19139557 26861439.44784776 51378133.35812257 12929276.203918986 64877781.02307663 16417741.890118295 13185043.825807322 8293218.423345607 7571810.568917005 31637186.679786533 29348041.872729298 48244943.537174 32927924.45513972 38571268.483502 32062015.823868692 26364040.05454263 43605574.06948858 20375935.381355926 11342781.56957058 35779325.54927574 25700705.345154844 38851427.1464176 2543648.5801089113 6438845.59508972 4020125.9744039723 1169629.1627413908 24207763.607532885 33230356.10807461 24733484.67317418 31775676.341098454 36874456.73741104 33166410.583274677 15872399.232831597 33827624.76961259 18724275.333366927 31945783.726290945 21008852.902487595 37869491.43060109 31931401.06986164 14708199.202780003 5356419.260163734 36958662.26173659 32481780.269518092 32038943.7063684 19589924.001926556 8393027.6782798 23488580.16643491 26891943.89865705 18509840.255763423 8476775.855380932 31345087.282402117 78054957.78868565 1885990.54727344 20108050.35712207 5770060.924322669 25815267.72907897 34889684.78705044 16502875.859029312 54809975.08586597 23528776.40138531 32092725.457098003 32033080.294147555 37750619.73661184 13000942.42706689 12986547.15955806 31952101.963991784 1180382.2048679513 30335247.91027523 126687046.02256931 37705560.46643931 20126798.351930678 20119281.70974911 31561435.490223195 32170800.591053907 32928694.005120385 21705450.471348554 25045763.053601503 3800379.34685406 1435093.6983477604 17462608.358743742 17188211.814745817 29038619.027387075 18886568.67076144 1875043.4834347386 23697302.926646337 6339997.498024355 21313662.108833585 1856786.9469829123 1821962.7227480642 21285474.263737533 36893261.51536255 4196851.278954664 33318526.31744677 16003782.731416628 3763879.1601145314 33807571.35044843 15402703.75024389 19056986.286963772 22891553.405318335 21237534.570797294 3102318.466414207 1627662.4597137019 19493460.64394812 29039086.63279512 33375356.34343972 8663833.032682398 28729100.1905974 2979849.834948525 1856036.1868015658 40373744.334857546 30142470.21750514 3272496.9509567795 25860686.773395002 4184314.714972325 12733649.338548735 59034961.68730727 9932752.75245821 164751.28864051632 30281378.47734845 1351933.8584950843 6325542.882749418 26706106.531157378 39543102.009755634 21753428.37355157 21788119.990799192 5278941.735578477 24105193.052465137 33692658.009499066 32668184.531529352 37383224.35885631 15638658.89256519 12380504.755340185 38444895.070396096 30270142.95831321 10307063.283995487 32652020.75439345 22522037.182158418 1620454.5281579765 32370598.1860301 37374297.21748952 1189449.2249231744 30644120.997865677 31794663.380427014 11654211.000796977 14155839.947249442 17571186.119406354 12193258.2209269 30778667.760540303 27645962.83867044 27340341.91136802 14897753.594312359 16807916.29488937 13094050.384441288 27387216.702305257 9120891.189162167 32146644.444569178 32149818.80626095 30457138.798313197 23977731.150225744 146847318.07818866 17354582.302433413 15096749.982912567 2366271.5738745397 30583080.637139644 26070592.928545084 16327575.74903298 13828330.844943179 31741872.555376727 12977144.612314029 35771208.746520355 20635530.98643546 45820776.0990786 31998161.82569644 11956940.306409601 30553137.71365881 32483897.642776094 34227519.801948436 32120885.45520213 14959107.170442466 17673265.655735977 32181674.794615034 33147780.220033057 31996439.323587004 32354195.384634264 32551391.51896445 15560883.460134508 32533768.402599975 5602118.4870633185 29768414.291818507 37015832.89976182 34405151.93876639 32113874.117045302 8895151.58337044 31599442.97016969 33223402.511387557 34089181.951924965 31611263.27577622 18326444.181579143 2779264.2812391454 9964952.347433338 18096183.0352643 11217188.169135276 15521112.294304743 11227940.562445652 30299238.30995426 42084101.18878339 17988432.955859136 168688.09023795504 23883402.31266174 36887703.79435625 33684230.87515889 24381961.26472837 18441012.792046957 7681467.370152291 25368243.41682585 9606165.533383772 26704444.16937231 24351502.350045476 32572477.559517603 17646374.22027517 12367010.305056864 32551383.442558132 17680024.972105183 33453146.041972723 18582772.2113634 34276292.59166744 7065554.977693012 34595655.60912908 29678005.720258415 32015042.296014406 24291559.161617145 29392635.02236252 25448425.59102941 31934255.975480396 3623126.9350749613 32839554.0984931 24205995.65485125 33997352.21332303 106279698.46198642 27248937.901813615 27268794.328288704 31919978.206858635 31122706.61743545 12128357.63072592 13989146.242532345 20267806.347263172 30552691.84259281 33725205.03223932 31463461.05068253 28252770.449956506 24193348.145001687 33219291.6624191 13412279.45517944 13254665.400848066 33807558.43644768 33831080.117187455 935863.3282152393 31010099.525697872 27334893.243356522 24947151.059847616 26388781.3369276 7149583.610122655 14278375.581081523 29422317.248237338 33206810.491178066 941480.2377775537 14184613.76362198 24389042.108389877 11178660.672641687 31823836.37035305 7683810.189010523 8149287.950440334 14043790.17194153 30718498.63714736 27559803.50228227 31892422.5233492 29798882.38955295 32312215.56700507 39150952.83659607 30938418.163578726 7280043.537582496 39275962.18896871 33823650.5444987 3639295.2366917543 20962997.48791999 29806861.207325038 33210626.491056778 31377089.153730582 29053772.078311782 32818201.4105706 33818759.76221712 29912164.02363385 70062997.42448825 32431152.795916844 32456756.234705947 35782669.38732118 32778040.655557774 31988950.667652145 35945112.31706614 27616665.672614314 23341786.383016117 39624313.701774746 31772553.74520803 13479260.548535928 21900853.054482102 13573149.78304223 8351064.6993426755 21352475.762903303 16920114.300354786 32528575.090990975 63892169.26901561 31793835.851743475 22502803.06854432 14806077.562761948 63893397.80467554 32221904.327600386 43191262.282673515 33791116.34775574 21409663.3788758 7319248.288608607 5869455.318568673 7626078.453545501 29794561.257554978 7712017.33637354 16872951.585412584 2