# vtk DataFile Version 2.0
Really cool data
ASCII
DATASET POLYDATA
POINTS 2328 float
0.06875 0.14 0
0.09625 0.14 0
0.105 0.12 0
0.09625 0.1 0
0.06875 0.1 0
0.08 0.085 0
0.1 0.085 0
0.12 0.105 0
0.1849999999999999 0.10703125 0
0.28 0.11 0
0.295 0.095 0
0.315 0.095 0
0.33 0.11 0
0.33 0.13 0
0.315 0.145 0
0.295 0.145 0
0.28 0.13 0
0.1849999999999999 0.13296875 0
0.12 0.135 0
0.1 0.155 0
0.08 0.155 0
0.32 0.12 0
0.305 0.135 0
0.29 0.12 0
0.305 0.105 0
0.07086538462010193 0.14 0
0.07298076923497834 0.14 0
0.07509615384505922 0.14 0
0.07721153847077764 0.14 0
0.07932692309430678 0.14 0
0.08144230773237887 0.14 0
0.08355769231556316 0.14 0
0.0856730769217347 0.14 0
0.08778846152371013 0.14 0
0.08990384612292293 0.14 0
0.09201923072505477 0.14 0
0.0941346153641172 0.14 0
0.09704545455373391 0.1381818181628939 0
0.09784090911196341 0.1363636363155122 0
0.098636363662729 0.1345454544851908 0
0.09943181820676901 0.1327272726702422 0
0.1002272727578308 0.1309090908392439 0
0.1010227273047395 0.1290909090177384 0
0.101818181848701 0.1272727272029691 0
0.102613636397009 0.1254545453782651 0
0.1034090909304771 0.1236363635874808 0
0.1042045454605146 0.121818181804538 0
0.1042045454434992 0.1181818181565697 0
0.1034090908922565 0.1163636363251577 0
0.1026136363300227 0.1145454544686232 0
0.1018181817713669 0.1127272726202672 0
0.1010227272267825 0.1109090908040744 0
0.1002272726809173 0.1090909089849538 0
0.09943181813438678 0.1072727271643127 0
0.09863636358637783 0.1054545453402922 0
0.09784090905306311 0.1036363635498585 0
0.09704545453045103 0.1018181817838881 0
0.0941346153820743 0.1 0
0.09201923076503471 0.1 0
0.0899038461238612 0.1 0
0.08778846149647476 0.09999999999999999 0
0.08567307686869742 0.1 0
0.08355769225775647 0.1 0
0.08144230763670324 0.1 0
0.07932692302930679 0.1 0
0.07721153839285061 0.1 0
0.07509615377682746 0.1 0
0.07298076918991618 0.1 0
0.07086538459953859 0.1 0
0.07000000000267889 0.09833333332976149 0
0.07125000000648714 0.09666666665801715 0
0.07250000000937835 0.09499999998749553 0
0.07375000001422113 0.09333333331437185 0
0.07500000001798872 0.09166666664268171 0
0.0762500000206134 0.08999999997251551 0
0.07750000001746468 0.08833333331004709 0
0.07875000001211144 0.08666666665051807 0
0.08200000000315097 0.085 0
0.08400000000745389 0.08500000000000002 0
0.08599999998316099 0.085 0
0.08799999996401804 0.085 0
0.08999999995273557 0.085 0
0.09199999995121091 0.085 0
0.09399999993491401 0.08500000000000002 0
0.0959999999319663 0.085 0
0.09799999995619145 0.08499999999999999 0
0.1014285714352811 0.08642857143528114 0
0.1028571428515646 0.08785714285156455 0
0.1042857142735715 0.08928571427357146 0
0.1057142856933882 0.0907142856933882 0
0.1071428571214575 0.09214285712145748 0
0.1085714285487523 0.09357142854875229 0
0.1099999999825088 0.09499999998250877 0
0.1114285714040922 0.0964285714040922 0
0.1128571428192865 0.09785714281928654 0
0.1142857142253571 0.09928571422535715 0
0.1157142856558949 0.1007142856558949 0
0.1171428570889495 0.1021428570889495 0
0.118571428538364 0.103571428538364 0
0.1220967741945716 0.1050655241935804 0
0.1241935483896608 0.1051310483871769 0
0.1262903225842215 0.1051965725807569 0
0.1283870967914896 0.1052620967747341 0
0.1304838709523535 0.105327620967261 0
0.1325806451356187 0.1053931451604881 0
0.1346774193244426 0.1054586693538888 0
0.1367741935195587 0.1055241935474862 0
0.1388709677096724 0.1055897177409272 0
0.140967741904188 0.1056552419345059 0
0.1430645160818684 0.1057207661275584 0
0.1451612902720435 0.1057862903210014 0
0.1472580644834145 0.1058518145151067 0
0.1493548386909326 0.1059173387090916 0
0.1514516128937171 0.1059828629029286 0
0.1535483870840412 0.1060483870963763 0
0.1556451612840674 0.1061139112901271 0
0.157741935462228 0.1061794354831946 0
0.1598387096478209 0.1062449596764944 0
0.1619354838311417 0.1063104838697232 0
0.1640322579966667 0.1063760080623958 0
0.1661290321782136 0.1064415322555692 0
0.1682258063682311 0.1065070564490072 0
0.1703225805506956 0.1065725806422093 0
0.1724193547380075 0.1066381048355627 0
0.1745161289385439 0.1067036290293295 0
0.1766129031440386 0.1067691532232512 0
0.1787096773606842 0.1068346774175214 0
0.1808064515721579 0.1069002016116299 0
0.1829032257837579 0.1069657258057425 0
0.1871590908930736 0.1070987215904086 0
0.1893181818021256 0.1071661931813164 0
0.191477272700166 0.1072336647718802 0
0.1936363636182066 0.107301136363069 0
0.1957954545312931 0.1073686079541029 0
0.1979545454459874 0.1074360795451871 0
0.2001136363587738 0.1075035511362117 0
0.2022727272621838 0.1075710227269432 0
0.2044318181621304 0.1076384943175666 0
0.2065909090717571 0.1077059659084924 0
0.2087499999589179 0.1077734374987162 0
0.2109090908703831 0.1078409090896995 0
0.2130681817763759 0.1079083806805117 0
0.215227272685777 0.1079758522714305 0
0.2173863635958268 0.1080433238623696 0
0.2195454545073771 0.1081107954533555 0
0.2217045454294247 0.1081782670446695 0
0.223863636339363 0.1082457386356051 0
0.2260227272489987 0.1083132102265312 0
0.2281818181605139 0.1083806818175161 0
0.2303409090875041 0.1084481534089845 0
0.2325000000052596 0.1085156250001644 0
0.234659090902737 0.1085830965907105 0
0.2368181818135079 0.1086505681816721 0
0.2389772727244382 0.1087180397726387 0
0.2411363636346514 0.1087855113635829 0
0.2432954545371026 0.1088529829542845 0
0.2454545454246327 0.1089204545445198 0
0.2476136363213811 0.1089879261350432 0
0.2497727272138937 0.1090553977254342 0
0.2519318181089132 0.1091228693159036 0
0.254090908990415 0.1091903409059505 0
0.2562499998901054 0.1092578124965658 0
0.2584090908050113 0.1093252840876566 0
0.2605681817047686 0.109392755678274 0
0.2627272726135495 0.1094602272691734 0
0.2648863635312589 0.1095276988603519 0
0.2670454544447627 0.1095951704513989 0
0.2692045453451599 0.1096626420420363 0
0.2713636362707289 0.1097301136334603 0
0.2735227272203026 0.1097975852256345 0
0.2756818181551134 0.1098650568173473 0
0.2778409090647967 0.1099325284082749 0
0.2815000000053744 0.1084999999946256 0
0.2829999999854226 0.1070000000145774 0
0.2844999999510034 0.1055000000489966 0
0.2859999999473654 0.1040000000526346 0
0.2874999999299716 0.1025000000700284 0
0.2889999999075633 0.1010000000924367 0
0.2904999998900509 0.09950000010994908 0
0.2919999999015494 0.09800000009845063 0
0.2934999999339102 0.09650000006608975 0
0.2969999999888869 0.09499999999999999 0
0.2989999999509398 0.095 0
0.3009999998509222 0.095 0
0.3029999998570209 0.095 0
0.304999999834998 0.09500000000000001 0
0.3069999997763834 0.095 0
0.3089999997820754 0.095 0
0.3109999997982705 0.09499999999999999 0
0.3129999998537683 0.09500000000000001 0
0.3164999999896196 0.09649999998961963 0
0.3179999999876417 0.09799999998764179 0
0.3194999999544931 0.09949999995449317 0
0.3209999999280954 0.1009999999280954 0
0.3224999999086686 0.1024999999086687 0
0.3239999999074617 0.1039999999074617 0
0.3254999998556276 0.1054999998556275 0
0.3269999998556994 0.1069999998556995 0
0.3284999999182233 0.1084999999182232 0
0.33 0.1120000000092327 0
0.3300000000000001 0.114000000011418 0
0.3300000000000001 0.116000000010283 0
0.33 0.1180000000050822 0
0.33 0.1200000000058445 0
0.33 0.1219999999961714 0
0.33 0.1239999999598676 0
0.3300000000000001 0.1259999999371502 0
0.33 0.1279999999316105 0
0.3285000000000424 0.1314999999999577 0
0.3269999999852616 0.1330000000147384 0
0.3255000000065137 0.1344999999934863 0
0.3239999999714211 0.1360000000285789 0
0.3224999999562507 0.1375000000437493 0
0.320999999981433 0.139000000018567 0
0.3194999999689393 0.1405000000310607 0
0.3179999999718277 0.1420000000281723 0
0.3164999999664491 0.143500000033551 0
0.3130000000024225 0.145 0
0.3109999999822801 0.145 0
0.3089999999004058 0.145 0
0.3069999998641698 0.145 0
0.3049999998327111 0.145 0
0.3029999998062666 0.145 0
0.3009999997901222 0.145 0
0.2989999998023702 0.145 0
0.2969999999079275 0.145 0
0.2935000000021514 0.1435000000021515 0
0.2919999999638825 0.1419999999638825 0
0.2904999999183969 0.1404999999183968 0
0.288999999888937 0.138999999888937 0
0.2874999998926809 0.137499999892681 0
0.2859999999005245 0.1359999999005245 0
0.2844999998693198 0.1344999998693198 0
0.2829999998882086 0.1329999998882087 0
0.2814999999457053 0.1314999999457053 0
0.2778409090667482 0.1300674715916641 0
0.2756818181547314 0.1301349431826646 0
0.2735227272275098 0.1302024147741404 0
0.2713636363001988 0.1302698863656188 0
0.2692045453720377 0.1303373579571238 0
0.2670454544500072 0.1304048295484373 0
0.2648863635170122 0.1304723011400934 0
0.2627272725983787 0.1305397727313007 0
0.2605681816881735 0.1306072443222445 0
0.2584090907635001 0.1306747159136406 0
0.2562499998214266 0.1307421875055804 0
0.2540909088840543 0.1308096590973733 0
0.2519318179684614 0.1308771306884856 0
0.2497727270782117 0.1309446022788059 0
0.2476136361661084 0.1310120738698091 0
0.2454545452542267 0.1310795454608054 0
0.2432954543341854 0.1311470170520567 0
0.2411363634195991 0.1312144886431375 0
0.2389772724997385 0.1312819602343832 0
0.2368181815834744 0.1313494318255164 0
0.2346590906712883 0.1314169034165222 0
0.2324999997502527 0.1314843750078046 0
0.2303409088459517 0.131551846598564 0
0.2281818179438134 0.1316193181892558 0
0.2260227270493727 0.1316867897797071 0
0.2238636361452708 0.1317542613704603 0
0.2217045452432536 0.1318217329611483 0
0.2195454543486292 0.1318892045516053 0
0.2173863634319631 0.1319566761427511 0
0.2152272725238696 0.1320241477336291 0
0.2130681816059221 0.1320916193248149 0
0.2109090906977594 0.132159090915695 0
0.2087499997847329 0.1322265625067271 0
0.2065909088903816 0.1322940340971756 0
0.2044318180176932 0.1323615056869471 0
0.2022727271223139 0.1324289772774277 0
0.2001136362212113 0.1324964488680871 0
0.1979545453303448 0.1325639204584267 0
0.1957954544424631 0.132631392048673 0
0.193636363553868 0.1326988636389416 0
0.1914772726499719 0.1327663352296884 0
0.1893181817674281 0.1328338068197679 0
0.1871590908777728 0.1329012784100696 0
0.1829032257919895 0.1330342741940003 0
[...]
CELL_DATA 4278
SCALARS Von_Mises float 1
LOOKUP_TABLE default
311825.90424120944 138746372.69536197 138734636.6512324 265035960.679875 264121416.3024724 165729738.57313642 165717066.44304425 535094295.7020477 535389134.5799631 134615761.71326634 144004652.71425653 468371971.48977995 464430844.012002 81629786.38275523 77795042.549759 86931769.61118013 77332784.6200812 2787820.9120995654 21565349.439852834 8486538.392451992 77574511.38217792 20135280.572636887 230168553.62162757 42882544.94400963 47252719.3420737 284539285.3140696 20435486.963415567 80031353.95611085 132651982.87383226 313649596.86462 84724832.38480756 3995417.334700333 87212840.81851459 277382862.44362485 93548813.9407298 26515741.38189513 7047728.094880653 133376173.11690761 70847053.34688501 105638925.61802363 111326884.84788615 111316289.27737232 197221223.81976882 172571859.05511352 103465516.31558977 54171783.19998821 36061485.07294607 36064278.06188232 6252133.841588443 69905426.22507049 80876330.91643585 3214248.7219807818 464743.78086759604 9101644.829129903 20237687.047800403 151696400.39203012 4070065.460360942 18921291.03505795 1034155.1704824768 52808650.06073069 142762377.79985633 303137891.34061116 303371426.82424897 104304.85480699349 59363533.46582334 82138887.07996908 44082280.93968662 107226074.05357014 200464.3658890781 242612.3934309119 486685734.1643889 487421978.61352867 5184666.19354336 7727459.516351465 26679684.034313112 32216978.561388884 35465629.20339301 13343255.480343385 519376.5116986239 53887692.29628046 232779866.6084587 147998940.1657873 126351746.95709065 110845705.02345096 110834605.50789118 70143196.34442544 71202911.8163418 45543817.52000258 40282500.85427795 47764214.95712159 35240698.17879382 30380000.705735262 30383478.16413319 340485973.4258883 337693543.1624311 115593079.73215087 130286961.63427775 107637455.21212657 121999033.84515566 15026179.826256534 15026671.305128826 16833251.69169576 16833717.802901644 79450761.53496869 488594353.35772747 488913443.12982786 32654260.72810906 36739945.09556904 668389.8932232624 142865244.08414197 197925253.9619705 197911775.72851372 317746662.3533459 325666048.45165914 58767.91016030859 78560575.49225524 16328529.700438853 320972343.19763607 319729706.8950138 62138761.53033808 56812834.08427323 640486077.4196879 640477846.4561992 46152.52309763738 12718004.726183064 192907135.4044901 27028315.66378479 23291962.165531643 23292174.32616768 84359516.5005628 1561396.611296574 940059.8711126276 280408446.8122467 276391218.2149305 153434230.21217203 116641064.02734874 20789348.739476856 7528438.940985116 80473072.6778192 98296677.69104217 54203214.92019061 94608322.49527422 217760212.5154291 217717646.07259896 79269351.63829279 19073571.933685124 51428504.65954533 184363522.7135447 31788692.055692874 406496750.35585743 407039880.9919446 540233526.7964567 540521658.3629338 114979530.19448873 94768416.23008011 571019387.20776 571017380.5458089 133755064.85250063 31137352.09494536 10477692.515155308 159977436.9533753 428334566.5202136 428608002.8722814 183614.09612835414 110388581.88981725 443415095.75561005 438702821.033019 184575.42034987084 51628970.726790816 8864952.898629036 133686712.23898757 261622867.07555798 265129277.28979436 191057246.09756485 108771982.72183833 209131998.77367985 209099236.79275686 88360412.18874884 4636566.094722094 211486709.59948373 211442030.69752985 216269073.35545653 27728922.801888768 290369117.49836254 320554329.31190014 317925100.3638488 127408.75243189599 405941823.4471421 396367732.9763161 9785572.624347065 9785436.956669394 265730778.58761117 266005955.10905048 21085561.58628333 21085930.51242847 135299976.15625578 144824162.0682644 251437654.52429095 251432286.84655157 13921819.168620525 2050471.6019765814 228992212.39878127 224799577.5030981 30428.50537664555 40090503.6085827 40093034.50263192 62370932.4210555 53967.33686879582 57764.146885846756 332467814.6208197 212350559.26308662 212292612.37286773 221393083.07636085 221391186.12139887 224513.13298562876 140824570.6979771 10070283.037551494 10069944.929464027 27675748.590137724 22703903.642140113 378403230.89355767 383325187.8281675 52957426.42627234 185460.19370842646 508994714.9692252 510670280.6271294 12660432.802845247 100336448.53005078 118847703.18631169 247612165.6390668 6321749.849976723 21121054.552033696 400468983.25094956 37635705.03298253 20212991.800073437 80797100.00264105 11529232.965896215 157390209.2291028 34641046.08648552 330434801.9289824 331375038.7917912 16342772.750427159 11669008.001769736 30948817.48355769 30952092.975030366 252342623.06030652 173599845.06474414 6630189.817337891 32569453.930782456 32566749.350566253 5090868.83145397 124814101.40100408 12462259.738651639 173473984.57979834 173458653.16352385 109574338.89949636 22444641.65907122 29267177.16465692 369554449.74765646 367441893.01137614 42977689.27857744 7818379.648084151 156041578.13238665 34768319.913025156 100099.40564848966 447396.5154052536 145737.39615457784 172664.71875472082 50630884.07562259 3726378.7654824583 58524025.50044349 5320534.411076614 179527.64255287056 328798.09703484504 405767.9302308083 167862166.24704507 12428008.849907441 247090391.6971124 247111625.3492438 125246889.96908855 72676822.08050111 96410153.31520407 294406164.8607278 294386429.8020023 127294600.50852962 5073095.680969445 50742535.6568463 12508773.167242186 32419765.044703603 553633644.850429 552867519.3462598 653659464.104633 654033490.1736577 80205424.50933598 72331648.37231319 51706424.22311862 59645842.06072755 59647624.132876836 10416930.180819875 57682026.48475484 202280090.07132557 204249792.24492395 382033086.0557375 379217638.5945353 126067360.26658757 605375604.0208226 605957772.5062741 72936047.44392286 390975077.0705726 32408579.44619413 32407403.579851165 387161.27173393266 288104.55289076775 254392.6027232128 51145727.385583825 51147368.02060898 88005996.7744413 57546438.0188835 23593075.94805622 9807864.938754667 163225870.8977323 91844464.22716255 93221669.91489317 205314201.4387535 22665235.4390401 22669771.672519445 345145438.34101385 346977962.62203944 39922326.73836701 13572374.665475193 333679936.1086498 397430401.41318697 875888.491012081 148587587.85567492 23881834.26352669 490853012.0769337 491806383.206036 39182435.62815773 58242583.533264495 22428839.4221571 271817315.7471498 9495104.448534837 121230177.51160851 125581132.36164099 99970984.03089416 493969022.165331 499764457.7582688 68138758.91430409 58060301.85399884 122992273.18003006 954494.6946307879 24699281.452749245 60132118.255032845 113565447.29494853 1817997.0181479172 205598723.8118362 205223898.31524852 31602.004571673948 97926174.47900921 77174996.63095596 223417035.236262 219104185.6027858 168798158.3180342 3245528.2793526268 43008450.85399739 61895886.71198482 61898346.28569432 50997604.52204811 154434957.3891334 74957030.08708139 304716349.262049 28511.808247303874 20087.42560924132 120501899.7316105 69903353.54439831 994179.7178148864 33582457.09947704 33581285.31384469 101316169.70598972 126697990.10862009 61784103.75422669 496040609.25154305 496148882.6686568 240002258.5299385 279818859.00403184 275922234.4491366 174523011.30765495 172553439.48803145 13956653.064285267 315776105.76806706 312365059.27383864 328074291.1255325 327609316.3727548 214202214.2142494 92600390.3875194 610877836.3656172 609778886.1437187 157114273.24333662 157107705.26314113 197195064.43278036 4263999.295980023 3649140.2021515155 16226844.965086376 51697005.38434266 71533677.29942404 226186173.3440786 221595986.32940945 112539862.2599723 112529898.54077059 115630976.58551176 37768933.54972527 37766602.35124515 6011253.076185945 225109471.2948869 7932955.23027619 153439761.74460948 105184627.84380843 11804415.104069907 320229628.6058289 320964013.0464465 268806213.2425333 268783067.56502527 8322668.3146475665 418580607.41735214 95397549.52162041 55809.28896490751 71941.84926396766 78641806.1989691 4203009.98666488 10426780.29443681 271176226.7876995 267007775.1779146 477370376.6944276 220233392.157316 225127314.34532648 114967383.04333901 23858735.560137536 142930190.61391953 204909.14083318648 78233.30732012099 251600.69599887135 46048.424047739434 50982.79269912629 18649.504244151776 16737.8130437341 33445.43013932178 88245106.07192083 5673867.4486257 187147389.98312724 197964079.070695 197946667.30886394 574672503.682598 575446780.4613137 61729031.49036824 61477332.15155808 66450303.47413107 66709498.11589853 71102986.01216896 113099737.36363298 137312864.47267973 130888097.2924709 335763329.32321113 335763378.94401026 16926036.04406426 368283101.8891652 367848250.2858619 52982984.63102031 261965026.67624128 105700.50327671427 377687580.92738765 378995497.68876505 10887269.186768498 9211005.870066822 4594946.084599593 309338810.34725475 308832954.3941759 11112971.970035255 141104938.91453126 7772412.005070469 128107017.73673874 159820216.26605964 159825157.32619503 4475398.606978253 260006365.62018389 77530757.5541634 746236.3754335176 746671.5645341304 77786239.4459705 286259.17680335365 25754818.84804827 31568850.69511408 13665436.059891602 129642056.80113183 217954491.17501825 212415.62320979373 148535.97989713034 173510.1750324075 62280001.57313261 17815441.594489 252855298.6792897 367057.3588598877 13754156.295470588 13755274.044208035 282201969.31663483 278080719.2206391 21436968.045738686 21439430.495872248 37564454.36453949 92157274.60712446 3900575.4701939393 169409481.41019073 219534589.43778345 141979212.23827755 20644379.295762897 26248622.606102996 123303370.37840252 37182168.02245398 205919824.25633347 205876225.576387 244118237.84843656 244094967.3477672 164276.74183661776 147934.68054371438 2111.1242729800956 202811215.26534888 197109788.1357201 44199.171641630586 50865.91790489904 78238.91568349348 41353507.54090804 295077169.6467369 4106282.355600525 201213154.9214101 161634105.86208332 78472321.2612862 78473152.20428714 312913735.9348081 316216545.4907153 169838236.3915981 7544320.028656951 11367606.1029937 67827.8434525151 75591.84780859227 5915647.36389624 29633400.73451257 1572732.8030132088 205271403.54749247 3816540.9903466515 60877361.840635486 60872997.33576496 300357979.9134243 300345547.51474184 2182113.4036645056 5086902.815545879 511080.6612071336 409734219.2691516 411043760.51106334 208875338.7470786 29243914.829153873 278302177.9900818 274218290.831702 423023346.21910584 407388062.1162462 404125824.69093114 7435792.202512793 3132203.3750105775 3493285.5482300464 405781761.5930959 406157955.54320836 136322943.16619873 130712182.27223837 101824.03229844543 138271684.97334793 60802392.984842785 5861841.61416407 5862763.445770059 100752917.87435968 100742322.23620287 289961353.1457636 295134142.9117403 429895825.14949465 430254146.78792113 50470672.04887469 20978481.87189709 20979919.961119212 262671284.13904044 262653663.45114154 141046818.9547344 136711988.6631371 1009267.6145877645 169974.31676608036 62964461.645015016 182369390.1389025 202434140.54673988 200795034.9107992 200848365.77504167 50575064.64734664 50577514.564591855 80952942.29960014 13756761.87885291 10660268.823917434 10659785.971520904 152365233.0486964 81910254.3669402 26039910.229281772 6730885.464039155 6730110.101903918 21391882.43058817 46695.11672509574 56110.672207161755 57572982.15786483 51956178.73654074 6518975.943455992 10382975.913614832 4059425.797183352 196228223.28005275 295239151.9566754 338918694.5253077 64915566.07901366 121153.37265236882 6478968.166931108 6479247.496174296 34122.77772180046 50057.16422144511 37390440.830783 91020191.4401335 68679253.84592374 77137232.41815408 102572858.41614671 116839392.71400002 116216904.8573881 369949994.5790333 328521921.6740483 185625614.00990468 190269627.17002943 41558629.0897493 36208700.85006505 15684.3029831682 26014.494572953554 37294.28297943416 155120.38095448716 37058.45477020347 174836.1206557435 59616173.196544915 194609.61021314954 147909.42093444153 140639.52571000517 155320121.40213695 155333334.1829851 248842206.99287626 309974029.8929892 148497756.85667592 13937709.127687505 290770.41013052774 451749661.54139465 450884280.2005422 774386.0227870636 59811458.48502783 1325232.4696541734 62203125.806710616 62205090.80946108 144980.92224194953 162450.5312351785 42679502.073340945 36766039.12063448 34221573.15981298 11184831.074287863 7102524.979311279 581563.1544135283 41115986.74692127 41114404.23497469 103301239.0759934 98751887.83583546 8311497.63510766 231979422.0677331 65127809.32204554 7208197.36950127 7207534.613297886 294169510.58772016 247976598.57878038 243855258.30149108 387010360.3417823 211121679.1140524 211106880.13768622 42299750.748934716 28231.698820825717 25678.350448517085 15865.717799074795 32789.32682134371 3912143.8620906645 3914367.161008259 93042896.19322588 94388070.52498676 19007.8916000066 30286.809035566388 20035.97208955397 34356.08119175507 60855490.72473925 252046796.3500874 252030829.3947402 2522952.24217148 60866331.0669963 13681995.274282549 13682376.42000018 34578495.87837251 34576736.86646507 364952257.24622333 235600513.108346 234253471.2550619 101269974.84892672 101259714.69037685 5429331.856037068 135519669.43836153 113102715.75742568 113089441.79737018 1349990.6147930012 166658084.85941133 219427406.70120597 28504718.57472662 28506844.606565487 230165781.72643217 230153263.35180572 294187.3213712984 63590855.984778404 63589184.36371386 410146946.7445591 407941001.9660135 41759225.67780551 41758296.53375426 468130.1287521086 397026347.3372821 398424831.7248799 49805917.15467159 55345585.63323761 52869101.312078714 43276760.65215273 38365205.468456775 50286021.88668313 45561968.996525615 24475089.29742715 24475960.168011717 157713.57074814336 175938.46293087146 9007372.341956217 380013211.0754806 380193733.9580356 24233927.930835195 24234824.079432383 388584594.7390064 18137559.885547422 18136609.93491649 483337138.7195776 484862054.2333499 134058280.258552 128787290.23484863 32452815.73524066 32456122.08479212 204451611.94429564 191669838.09055558 5424465.175938189 219778200.37012762 217373841.41362208 231546832.1329437 231533097.02484486 5472889.736603637 162056638.7970121 162063295.06323633 496674553.29521185 42764038.9690398 42760226.0350645 237495135.25908282 237481261.88539118 520489.94150245155 75711506.38019511 98847110.08889791 242839765.7530725 56643588.49500207 369794610.1243306 369806313.663289 84608231.5887864 1675424.4221125033 417793411.91475576 344970684.5894587 17932804.310404245 17932089.678347744 13849870.618943341 408047921.9425339 411049047.74226516 322147060.1401087 485939269.66176355 484025887.0043043 6010648.683288927 434731787.74189687 142390286.43667328 146652853.60851806 132370268.49037877 305856.46523816785 1955814.1885605573 44927996.055909425 28373198.274263073 28376595.438113566 278723863.8110888 278705406.99942404 3397310.2055447423 18745102.190987337 338371850.807705 335836502.1386642 8764762.285161471 3960017.5513505545 82428730.60525148 187090245.62245047 182094936.21844798 116314882.15533213 113232606.74781689 12075076.125894908 197171417.20339742 5038521.4757945165 197233933.69257843 131023661.84802432 113323431.34001015 117001802.43838458 582166.4620434106 168922004.95596576 166379223.48918825 467375664.17320997 45655.73832395993 17528.123211158072 32018.537560328976 40487.65432767915 2488715.9605913567 508332539.16615087 502502228.0848979 11478830.476935549 19001303.719730917 173678825.52025124 173651563.40336746 419500427.77209693 352152098.7348853 419117579.6868704 420312386.0600151 178117.07064660365 136377.44113904078 130399.12015735845 180755962.30761334 175620147.28094652 23925459.185849752 12739846.472953932 30492892.39252765 78825214.5407175 91146364.041215 1923476.1074908166 78410.43076823275 197510.065229289 151366.2373501797 47103998.23400942 141563.89340267327 181130.1211028671 198566.72031636763 169985285.47930944 165927264.83283114 11276647.57763338 686636499.7328684 686311194.9373486 39656816.15721265 54565795.1185755 7193492.547201011 155151261.83071494 200582741.45320353 89228952.18148845 85551060.58349076 14247255.304749902 14247962.412491325 349026110.43527716 348555812.84570956 9784095.417055946 9784151.800621647 100139213.79929781 45370940.911547616 320935398.39689755 222778203.38003254 9275204.469486501 52277333.44152615 222905939.17418194 229900.4243253426 87449.63292793612 180189.3065784749 264032450.07414272 264014510.7351397 52626994.05030188 47553202.284399904 255792506.0436296 248045130.56620845 72377592.2743499 72377379.2603576 49917447.2812 49916177.95166025 135858910.33083224 1273485.0189726125 13979921.988765167 318684535.8288722 66480059.332468174 7350640.400021261 266355173.47688618 266345416.274399 87946021.23914264 2327175.5752001796 220147721.1039595 224702462.879572 159392942.56263134 106883952.51389909 173042900.37839243 242648.0747371393 152232.41277332316 185100.54959739393 21705805.894557703 47303134.622845076 11256476.076700654 309339536.4597236 309322722.2021247 382817506.0178612 382824777.1466626 169005614.32364842 162802451.73692337 7425001.209963901 390140234.4874828 389389234.2414019 26569698.28612144 68634906.67584556 6342719.982127618 10511140.156690322 12795094.567062866 106090.73713000621 3376348.017262174 465802065.2935319 453373704.5805006 109264404.30933678 28761751.185368758 474695050.9756213 474678395.2813885 150516059.36009818 5042178.990381045 162474.42918742617 142352.93580388295 42174.424215411804 40387.571392568694 30091.559296356034 21419.1786715227 230759410.64110127 70600482.98121253 246388031.57216325 251665002.5683532 84264416.23896083 407966216.2011902 243948127.25567052 440267465.8110263 439612343.5974619 14534259.025848238 14534257.75326211 220798447.40469784 255166374.70239437 160869037.15474093 12670467.484385483 19470583.928750597 241435369.21862453 54203565.609869406 21308844.857814636 7438609.894765383 7439276.450362191 10167046.806419218 134909004.26639605 162779633.88571036 166654473.094495 551372853.0709103 551363193.1988083 224667730.8593061 230657880.0568702 210005.05403882024 182853.62218449157 29479.6057981628 12775688.824340267 12775048.914110107 24717537.73655077 24717030.859952487 223935969.23326924 88151128.72553983 241257785.337785 3189468.1153649525 3633560.8216008455 750575.2207149988 3302812.362908065 447931.2741747222 146262197.99820158 217553547.71625653 29931012.951717217 7600697.089304921 274418.2908686606 212253250.3645458 212249188.70701107 148900095.1422809 167943729.24042407 58709965.917649925 57412814.03187722 57413569.34514615 115174893.10199301 51300966.85195846 12234112.450281039 60120277.4474747 150516803.25890175 158412243.60055408 20070624.477369014 182011119.09761554 186726806.5256183 162864566.39456907 53678590.20446901 214858448.15938708 211186806.5703863 179995335.86559296 174869231.13152632 190256598.7743331 196302805.54729348 312579757.8723375 310408879.1992323 313957596.9205901 99985862.67564477 104446547.7298632 88447281.12538894 14286691.799679978 3343114.1764512383 127267448.13057132 202686341.00326383 61588366.71034653 61586866.236432016 97786192.2636978 11265998.53344716 312649947.0177059 269508493.3524938 44760289.50100853 190395750.44790804 196345191.86965528 562840891.4947106 567474077.5071874 250089930.1525034 79557265.85038033 79549689.69681232 163436927.19036826 100938843.33919346 95789083.43820871 158243514.49057293 128538818.60225655 122191196.524096 70692472.81750587 70690532.78127794 9693041.822689576 229670144.96877596 225582345.6584851 413259637.7468992 415442891.209638 39587393.688119695 57329494.9903947 62124763.72872841 19290052.102160715 22460109.667029377 167715.46541828912 196213.90527778494 35801.263494719504 362430948.8225899 361810484.2147489 3955356.0673185727 108995930.57211791 201911780.52360386 164032.55290154502 11655111.01976999 141052824.29027766 141038999.99852738 6203530.459653738 183320.1101045354 150026.89149981423 48303.16187959187 167144.9826072341 43909272.74268048 2416828.451133956 3954231.8446365115 3559043.939339857 186871.4887737062 217533209.14