# vtk DataFile Version 2.0
Really cool data
ASCII
DATASET POLYDATA
POINTS 2621 float
10.0 25.0 0
9.999999999999998 2.5 0
15.0 2.5 0
15.0 12.5 0
20.0 12.5 0
20.0 2.5 0
25.0 2.5 0
25.0 20.0 0
12.8125 5.0 0
12.5 5.3125 0
12.1875 5.0 0
12.5 4.6875 0
22.8125 5.0 0
22.5 5.3125 0
22.1875 5.0 0
22.5 4.6875 0
12.8125 21.5 0
12.5 21.8125 0
12.1875 21.5 0
12.5 21.1875 0
22.8125 17.5 0
22.5 17.8125 0
22.1875 17.5 0
22.5 17.1875 0
12.5 15.5 0
20.0 15.5 0
20.0 14.5 0
12.5 14.5 0
10.0 24.63709677361402 0
10.0 24.27419354592701 0
10.0 23.91129031775874 0
9.999999999999996 23.54838709246676 0
10.0 23.18548386794702 0
10.0 22.82258064299358 0
10.0 22.45967741670554 0
10.0 22.09677418897655 0
10.0 21.73387095986818 0
10.0 21.37096773248194 0
9.999999999999998 21.00806450811888 0
10.0 20.6451612807928 0
10.0 20.28225805407666 0
9.999999999999998 19.9193548266023 0
10.0 19.5564515987474 0
9.999999999999998 19.19354837138494 0
10.0 18.83064514499617 0
10.0 18.46774191704055 0
10.0 18.10483869087001 0
10.0 17.74193546347678 0
10.0 17.37903223681661 0
10.0 17.01612900940379 0
10.0 16.65322578413419 0
10.0 16.29032255642479 0
9.999999999999998 15.92741932834607 0
9.999999999999998 15.56451610131936 0
10.0 15.20161287375545 0
9.999999999999998 14.83870964642377 0
9.999999999999998 14.47580642010495 0
10.0 14.11290319369939 0
10.0 13.74999996694269 0
9.999999999999998 13.38709674181718 0
9.999999999999998 13.02419351686376 0
9.999999999999998 12.66129029367583 0
9.999999999999998 12.29838706999966 0
9.999999999999998 11.93548384555825 0
10.0 11.57258062117281 0
9.999999999999998 11.20967739572134 0
10.0 10.84677417031325 0
9.999999999999998 10.48387094675739 0
10.0 10.12096772123179 0
9.999999999999998 9.75806449698064 0
10.0 9.395161271231192 0
9.999999999999998 9.032258046482013 0
10.0 8.669354822118947 0
10.0 8.306451597138944 0
9.999999999999998 7.94354837200364 0
9.999999999999998 7.580645146620729 0
9.999999999999998 7.217741922905391 0
9.999999999999996 6.854838700199402 0
9.999999999999998 6.491935475456518 0
9.999999999999998 6.129032249693084 0
9.999999999999998 5.766129024955096 0
9.999999999999998 5.403225801332082 0
9.999999999999996 5.040322577682138 0
9.999999999999998 4.677419353225353 0
9.999999999999996 4.314516127429037 0
9.999999999999996 3.951612901263398 0
10.0 3.588709677867029 0
9.999999999999998 3.225806452333023 0
9.999999999999998 2.862903226670315 0
10.35714285661005 2.5 0
10.71428571213589 2.5 0
11.07142857046827 2.5 0
11.42857142735092 2.5 0
11.7857142850142 2.5 0
12.14285714287573 2.5 0
12.49999999995663 2.5 0
12.85714285391503 2.5 0
13.21428571211111 2.5 0
13.57142856468173 2.5 0
13.92857141917294 2.5 0
14.28571427871344 2.5 0
14.64285713891684 2.5 0
15.0 2.857142857852235 0
15.0 3.21428571521503 0
15.0 3.571428572726516 0
15.0 3.928571430603533 0
15.0 4.285714287978719 0
15.0 4.642857145514987 0
15.0 5.000000002580401 0
15.0 5.357142861368146 0
15.0 5.714285719647869 0
15.0 6.071428578485179 0
15.0 6.428571437049889 0
15.0 6.785714296048281 0
15.0 7.142857154135942 0
15.0 7.500000011102228 0
15.0 7.857142866965729 0
15.0 8.214285723560286 0
15.0 8.571428580253976 0
15.0 8.92857143590683 0
15.0 9.285714290295818 0
15.0 9.642857145775196 0
15.0 10.00000000179977 0
15.0 10.35714285775001 0
15.0 10.71428571439413 0
15.0 11.07142857145955 0
15.0 11.42857142775673 0
15.0 11.78571428532397 0
15.0 12.14285714320719 0
15.3571428591223 12.5 0
15.71428571719138 12.5 0
16.07142857423201 12.5 0
16.42857142974857 12.5 0
16.7857142846084 12.5 0
17.14285714112862 12.5 0
17.49999999772317 12.5 0
17.85714285297952 12.5 0
18.21428571083795 12.5 0
18.57142855939082 12.5 0
18.92857141386655 12.5 0
19.28571427430228 12.5 0
19.64285713574168 12.5 0
20.0 12.14285714165368 0
20.0 11.78571428436058 0
20.0 11.42857142737726 0
20.0 11.07142856955135 0
20.0 10.71428571316279 0
20.0 10.35714285484745 0
20.0 9.999999995955926 0
20.0 9.642857135639455 0
20.0 9.285714276871845 0
20.0 8.928571418674213 0
20.0 8.57142856231663 0
20.0 8.214285703660536 0
20.0 7.857142844508807 0
20.0 7.499999985406642 0
20.0 7.142857130003156 0
20.0 6.785714275659092 0
20.0 6.428571419530735 0
20.0 6.071428563699761 0
20.0 5.714285706611115 0
20.0 5.357142850049079 0
20.0 4.999999993527312 0
20.0 4.642857137101577 0
20.0 4.285714282125578 0
20.0 3.928571425551149 0
20.0 3.571428569906041 0
20.0 3.214285713520577 0
20.0 2.857142857692707 0
20.35714285650163 2.5 0
20.71428571178895 2.5 0
21.07142856795603 2.5 0
21.42857142687388 2.5 0
21.78571428441634 2.5 0
22.14285713997626 2.5 0
22.50000000002168 2.5 0
22.85714285703133 2.5 0
23.21428571221953 2.5 0
23.57142856194335 2.5 0
23.9285714186928 2.5 0
24.28571427764782 2.5 0
24.64285713873408 2.5 0
25.0 2.864583333579086 0
25.0 3.229166667418379 0
25.0 3.593750001170938 0
25.0 3.958333335039145 0
25.0 4.322916669051911 0
25.0 4.6875000031225 0
25.0 5.052083336528115 0
25.0 5.416666669875903 0
25.0 5.781250004033231 0
25.0 6.14583333738102 0
25.0 6.510416671422698 0
25.0 6.875000005290905 0
25.0 7.239583339506053 0
25.0 7.604166674125976 0
25.0 7.968750007979722 0
25.0 8.33333334199249 0
25.0 8.697916675860695 0
25.0 9.062500009671076 0
25.0 9.427083343134518 0
25.0 9.791666678332678 0
25.0 10.15625001249001 0
25.0 10.52083334768817 0
25.0 10.8854166811516 0
25.0 11.25000001496198 0
25.0 11.61458334738459 0
25.0 11.97916667946025 0
25.0 12.34375001292369 0
25.0 12.70833334511499 0
25.0 13.07291667765324 0
25.0 13.43750001088538 0
25.0 13.80208334365493 0
25.0 14.16666667353327 0
25.0 14.53125000442354 0
25.0 14.89583333573303 0
25.0 15.26041666500421 0
25.0 15.62499999488256 0
25.0 15.98958332836045 0
25.0 16.35416666104326 0
25.0 16.71874999219373 0
25.0 17.08333332471754 0
25.0 17.44791665847009 0
25.0 17.81249999193352 0
25.0 18.17708332505002 0
25.0 18.54166665810869 0
25.0 18.9062499938851 0
25.0 19.2708333296615 0
25.0 19.63541666578485 0
24.65909090697006 20.11363636434331 0
24.31818181387862 20.22727272870713 0
23.97727272112545 20.34090909295818 0
23.63636362933978 20.45454545688674 0
23.29545454074166 20.56818181975278 0
22.95454545175678 20.68181818274774 0
22.61363635870555 20.79545454709815 0
22.27272726938004 20.90909091020665 0
21.93181817642107 21.02272727452631 0
21.59090908415283 21.13636363861572 0
21.24999999070893 21.25000000309703 0
20.909090898365 21.36363636721167 0
20.5681818062032 21.4772727312656 0
20.22727271532826 21.59090909489058 0
19.88636362288735 21.70454545903755 0
19.54545453222531 21.81818182259157 0
19.20454544067146 21.93181818644285 0
18.86363634917439 22.0454545502752 0
18.52272726008306 22.15909091330565 0
18.18181816691119 22.27272727769627 0
17.84090907624678 22.38636364125107 0
17.49999998161302 22.500000006129 0
17.15909089129634 22.61363636956789 0
16.81818180107666 22.72727273297446 0
16.47727271035784 22.84090909654739 0
16.13636362113641 22.9545454596212 0
15.79545453028867 23.06818182323711 0
15.4545454400335 23.18181818665549 0
15.11363634812483 23.29545455062506 0
14.77272725866684 23.40909091377772 0
14.43181816866006 23.52272727711332 0
14.09090907805834 23.63636364064723 0
13.74999998745307 23.75000000418231 0
13.40909089754563 23.86363636748479 0
13.06818180839043 23.97727273053652 0
12.72727271853859 24.09090909382047 0
12.38636362812021 24.20454545729326 0
12.04545453791708 24.31818182069431 0
11.70454544876188 24.43181818374604 0
11.36363635991656 24.54545454669448 0
11.02272727049761 24.65909090983413 0
10.68181818161208 24.77272727279597 0
10.34090909059876 24.88636363646708 0
12.7209708686998 5.220970869541787 0
12.27902913024896 5.220970868490556 0
12.2790291313002 4.779029130458213 0
12.72097086975104 4.779029131509444 0
22.72097086840513 5.220970869836465 0
22.27902913044831 5.220970868689902 0
22.27902913159487 4.779029130163535 0
22.72097086955169 4.779029131310098 0
12.72097086902355 21.72097086921805 0
12.27902913070156 21.72097086894315 0
12.27902913097645 21.27902913078195 0
12.72097086929844 21.27902913105685 0
22.7209708691208 17.72097086912079 0
22.27902913087921 17.7209708691208 0
22.2790291308792 17.27902913087921 0
22.72097086912079 17.2790291308792 0
13.0357142863834 15.5 0
13.57142857334916 15.5 0
14.10714285783675 15.5 0
14.64285714470339 15.5 0
15.17857143070267 15.5 0
15.71428571720997 15.5 0
16.25000000702564 15.5 0
16.78571428904744 15.5 0
17.32142857412979 15.5 0
17.8571428511085 15.5 0
18.39285713616606 15.5 0
18.92857142211578 15.5 0
19.46428571101452 15.5 0
20.0 14.99999999601014 0
19.46428571160309 14.5 0
18.92857142040583 14.5 0
18.39285713577575 14.5 0
17.85714284336419 14.5 0
17.32142855637984 14.5 0
16.7857142655791 14.5 0
16.2499999775787 14.5 0
15.71428569556309 14.5 0
15.17857141150299 14.5 0
14.64285712475407 14.5 0
14.10714284117721 14.5 0
13.57142856006613 14.5 0
13.03571428124737 14.5 0
12.5 14.99999999867727 0
20.57585899687696 20.03038685996468 0
22.5567783581192 14.81160051491081 0
23.44565023941834 5.016536331156335 0
23.40922079953497 9.046790267449133 0
12.97531663670318 12.33515430196766 0
13.8438271228747 19.90210698319279 0
11.2024050281192 4.450333467935075 0
23.75386421265016 10.2777876813598 0
12.84557957340481 9.260264452206265 0
20.72548935713821 11.66675209437066 0
23.55297530946308 12.08640144331927 0
23.2973389809312 17.83026861971046 0
15.20064299177235 21.42763869285799 0
19.22758812730291 20.2964007900542 0
14.51086124088117 17.97252380047296 0
21.14050431848039 10.13560904015623 0
23.73542170608578 16.98601004981886 0
23.00120877823225 3.141992411579835 0
11.99878139828794 3.141983961899634 0
21.84590086250845 13.20259307409131 0
19.56035910729081 18.79732846407983 0
22.92908352219388 16.92038625297608 0
21.40652615202035 6.559807691329802 0
23.91591409665157 11.43080366687679 0
20.3167550050269 8.392986416720813 0
23.49924640039292 13.27008425635712 0
15.80164792753689 17.06638633459536 0
12.66900816270895 5.754476315781202 0
21.28676736699386 14.8072285011536 0
14.75529171301906 20.37744913422123 0
15.79596442695103 18.37191216472147 0
24.07321192632542 18.9527612608091 0
[...]
CELL_DATA 4934
SCALARS Von_Mises float 1
LOOKUP_TABLE default
32802680.034461863 31486709.37258687 24508057.28383392 17193728.85073398 14202195.428176662 40141473.696892336 25416267.122401107 13210541.92323049 13218385.282096516 30764299.390093677 14138512.916354876 21778809.973159906 27079179.364248034 28054272.55724302 32446534.807791527 76994213.51961634 12654747.036403853 12651294.5844136 43558126.92418825 49812111.32844848 62497863.1496455 42126985.11087202 16114236.072382793 16112750.543896222 50084235.01836134 2690723.923758856 35572575.74910805 29647143.300359864 30354318.266342245 30257730.44996124 12914893.183558948 35249223.29344197 29715929.82286771 28601037.382623017 31785186.012459554 30219166.014165163 31095182.98206016 31793738.772787083 17988573.19047835 32972870.586504444 12559475.351354333 18396016.762029562 17342269.81773821 30367363.3193972 18443841.334663942 26625870.87627071 9948865.116984637 8798983.839559196 33328879.400421206 3124914.6028674347 14972396.088147143 8680696.325614803 16756587.848057933 16760687.412316069 11783486.174894081 31970040.276035365 21339093.304205906 40740030.83206065 6408725.522669071 33036390.37043931 27488854.74962185 40111638.09389283 24981935.956617218 11493664.733982602 32440564.062173065 29127980.4634109 29133473.161653493 21721805.518925566 53831317.997723125 23634127.36469652 11760746.439929716 5913861.498630682 3945968.127814775 2343394.972542682 2341390.8465633322 29745442.29322302 60468797.46758828 2255683.4469085573 57291746.36858444 32964422.16884553 29313956.406545874 36547602.83375886 36197524.93343081 34013853.27783217 57308044.07943785 25844185.245077334 11632255.245323673 1967012.8344461888 1966050.4132802952 1647868.5404505776 27683246.16042857 1902614.3907358358 20858074.44536782 7156817.783497017 7150606.201675305 32568360.191773914 31208458.433594406 13510843.941399194 13516511.223419288 32370692.85123207 19504342.00380985 29642132.838818315 29671866.15856062 31184350.55505177 29898363.40651764 36215961.81135257 22925035.431949638 5863770.881967422 35666981.7271034 29842176.13224511 31593758.615698274 14735847.114951322 30964571.11175024 22796735.477003224 14923715.908119999 35728702.56004699 10332818.077096308 83655.28264305356 31584455.53237097 35677895.44937893 27713961.241337225 27760913.00173676 21193977.75312634 17083243.70197397 17078444.72175856 32658429.791146655 31975408.91657759 36449327.13148702 83936485.664001 83932175.21804868 13771138.050233915 20098882.585016705 13763540.044835592 32074149.522093136 33461937.029095277 16974317.217869278 31315554.19131296 13858367.32283456 10010818.918118915 34685248.69227847 30914411.70380685 25026016.73007303 31865049.13643579 36683285.966929905 5793250.304687079 34570207.24206377 5808522.591022197 18528925.303355146 14230232.410132278 32161100.09672434 26364662.302375007 31532017.461139612 26298817.974456616 18845359.913884874 38870796.61248668 85126353.48883636 31298586.084997177 32829610.329862755 75736267.97270843 13737030.537260775 35481402.18452602 25175049.637049798 32173393.89629278 22717109.847069524 23000130.58466162 34818982.75393013 18868923.72204109 8729002.723560706 32146551.21944767 30111933.96384387 9826129.107130291 33917647.3926121 31980173.75673358 239802.22903861073 23918395.358195093 20274701.53742355 17893625.037613157 20259770.78897972 36327154.69619687 17906651.327813514 24400954.71053127 28192033.622870095 26757859.98158434 30098275.486376744 76544499.85488266 239476.4919222191 6623125.993247874 34630574.44679458 28759651.813833635 12836966.290165722 13787802.071099928 6878530.475767464 30700386.744216513 59674752.42293917 32222676.543380417 34924415.379939094 24682104.7591158 51728196.01947632 125181263.06006342 5307851.262640661 32357101.909847025 25398944.098930873 22576568.187896304 20199369.7739683 25024361.432538517 34765145.83520173 14246548.282742938 16205741.80733443 51813923.439759195 25082815.1474483 2801660.697214996 235388.03733366175 6868308.6826491915 6862472.3203385165 52571151.33925288 33780806.202073395 31517476.552138783 30067844.531704165 25339091.3739891 34701469.81251619 30719889.268791106 30227681.051738467 32239322.961379286 80065566.32461621 34836436.94886499 13051350.487083333 33316065.970550068 27669156.072586734 3827433.708036498 27414245.754497368 11248993.148109276 34561440.68205546 34679069.07751195 35100001.38210465 248532.88493413705 33741337.70299503 23511454.10652679 10159633.797691228 2671537.2342006005 2669468.532687869 12863237.084192732 27188960.063835166 33211445.460021928 33359315.153389968 16565880.773297612 18469894.088873018 42618856.32360462 32227422.747596636 1216636.0922818629 3690226.682165789 22825395.76676069 32841118.99840263 40556285.64266256 40540409.60105136 15571152.991699846 11213797.975146778 11220994.691290932 15000672.772712553 26086308.200384595 31877970.233591884 34241288.57231255 33512244.19792529 10587955.279204706 20630994.965633765 67490145.31310493 10300228.418681448 29061828.318467762 33511322.603287306 73032653.905707 34213268.20000269 27042090.29520345 30757159.636073135 45040392.44827091 12331719.072605558 13321174.514882606 13316013.478291312 15246181.18358071 28409573.46703325 14318739.534880605 33150035.546826452 20678335.63931082 12350979.57186736 30015603.336008344 14340532.58131893 28935215.0641794 26967355.148625262 25000440.662827644 31589383.13799963 32263566.938822538 23228379.63561378 26134866.711930785 30440223.92432957 30917534.7270366 32432997.29304487 1321582.3982079246 28388989.60782521 17620625.789984006 1358211.4397767659 39575856.86634996 8078794.668144959 9995717.809169712 13349028.582356112 13350468.288333848 23958156.081750285 18501222.35508095 10779214.059349256 39582775.69904177 33389274.215184927 33556268.77137676 32258061.530100945 34366324.82233153 32327667.735447682 1346037.4011185332 27025698.651068594 13403908.911842488 21893968.238928996 35742413.36534275 41771653.60092843 4000166.8162496462 18292438.447299507 27520386.518219244 9340605.653832614 37749126.80017158 33556265.60146006 32361592.14087844 46396693.96099142 10543202.741879007 32675788.477534488 27173866.132381544 31941452.939679854 24936316.5966898 22872961.237700596 10399681.662762843 33953364.071164794 23597876.66812035 31613199.42099637 33542254.58723726 20177515.667235263 29165778.0074963 3993313.846362784 29889825.337764926 32131090.09024029 10590870.790461957 30911739.491660297 33489131.882063165 17287021.077762436 17277659.80448569 10448839.47960747 27536137.6389737 12995759.247581488 22785229.200434856 27421829.168238476 31965256.61728473 36898054.17782776 26010317.907916006 15642630.653244957 22945977.950651437 34196270.93052177 18127086.073146634 32807597.512091696 27354919.34764085 40055965.05945102 55671889.70005052 55659336.326456174 24036365.66858854 49006743.21266134 49018408.26067357 32320693.65737465 19787672.10800738 19729942.777638264 32788723.49806287 11565282.357788587 11610392.284289913 31092448.584745776 18968987.86469261 13084038.406605616 2031451.745435093 4551055.1540756235 19697157.243509248 34839882.02343667 32511620.516996812 48733088.95676845 31347072.640175924 30653947.969251856 19545269.572625723 9545063.470187055 13601979.527143376 32926883.40612561 19680045.35739505 37891502.013366744 17984180.088464025 18852019.653463233 23392591.60575777 29846800.45555843 22423327.227236915 13598317.493557846 16336967.45039342 16327716.730135184 15329377.861655384 38036532.46779046 38460659.19163949 17990593.40657232 32206092.946432352 28581871.64967692 33142874.045338906 32205266.276003562 32168153.67799337 24139588.809119686 30114775.139061898 31161698.09937183 36763350.67206554 17920372.54325091 31982744.71954469 32034805.3172062 9969912.753323615 6134117.536498096 6133085.167746174 30294132.507266805 33377595.03766566 51518523.609462924 34464483.571093775 31903746.5400847 4036061.782219928 27762746.47561825 24285886.382171717 16125129.814335153 9993488.834007133 1376313.3814602257 1345662.049365481 30314775.244667284 40963423.23245253 24676195.904285815 24690373.187398285 38318490.553807825 29360490.233312134 31547720.888227366 27300142.844162736 15034031.606140025 15059636.157112736 31847069.619108923 30780433.007200982 54044570.25274756 6733854.538150668 31911982.62215506 34714524.39003358 27061116.270337224 27345206.491639417 30747204.795458276 29870939.947603602 20396336.155988216 31665387.69278129 19281443.547100987 9708790.363176035 24283047.044811018 5159922.88834865 13323959.741399514 14732239.273780266 8844372.760824628 4310473.96203524 5154637.554124553 38536105.634796984 29199951.45178518 35397034.17052002 31951703.94148554 44538112.64422271 44529588.58893485 29410754.98854475 29515811.104895853 28092262.412455183 42216954.31203408 32438811.724299245 847039.8607421889 840523.6532385031 29185986.457366917 39357378.91770169 32219405.263675675 50298544.36900972 168754.56523561105 20326894.93542563 31274845.44693536 18313735.156878375 38806933.26662046 20339993.0459972 11143366.600863062 32572140.542788908 1663807.967711885 33682691.37744382 6764571.454436544 6756437.945881599 12810907.535984198 7927856.026825097 12843422.634795085 35188920.45936233 36491644.25131255 25397843.533736125 29316430.74124443 33729891.6153415 29770845.087723352 29492428.553274978 19752036.62515917 27503612.07508508 17171718.721856907 31898498.78736111 32480159.586157367 30990998.581086103 21003373.881938472 34515628.44522953 28525133.56581712 24765313.62453549 33852441.506094836 33928512.61124659 10134535.096322384 10134535.096322384 6617259.406254341 52427419.37913288 30885639.832856327 23801460.716213718 23790610.150787808 21304294.53375044 35168619.26391697 6599776.789120927 31712017.058059994 68500312.91681273 48351540.66158158 33181523.455879007 24776287.72138 33187536.279117025 18431837.710000847 4021886.267242202 31731971.063059077 25531896.104116295 41813947.60006165 15695928.988793995 30397248.688891668 41551300.78914221 21655067.540652603 21643594.83900267 36001886.57320412 27414147.04460687 39244367.34605471 20777204.840827685 35674808.3904092 31894112.012420487 32550998.025067367 22780772.381776568 33583546.55554454 21862069.67491108 12937351.822462842 12944231.02206907 29834252.76568653 32723645.45053353 31572607.65910638 46402768.73561733 26865384.31598585 25615624.41457815 80907161.5990415 29942893.420812786 21568648.97102658 24548043.656231705 31809248.204398606 39341597.02919539 27328595.040113147 23825709.94035455 25640827.339976385 25321059.518934853 25454941.77844808 27907067.71332397 29385641.404019184 50021963.84024293 10837578.687551653 25617410.623352185 34261136.66413764 2594493.2456374867 34159084.436898746 29783898.89760293 340825.70890561596 21130243.338597007 24575784.90403444 21061091.617682908 35368877.66858345 12089406.358871331 34651945.33178685 21310460.609122284 25100409.007451314 66493847.642123885 45977740.18743757 25585207.383161943 16677733.349179218 33831591.64670045 34287187.0952038 23284160.35931353 23287293.156820454 14782543.64943771 6275745.11563589 20540261.164309822 16254456.512183959 1040533.1592926253 1037908.0012452522 76548501.24540941 6271610.272205756 76572719.32015221 52172259.46100042 32244998.211269155 23255741.172304597 38583242.26151383 17142585.268646136 37712901.379701056 57260384.60918803 29274461.029298745 21646164.403469544 17968458.26354949 61837426.96459339 32174438.578047663 65190097.13372214 32306738.42452055 8780340.739130069 29487542.75328095 31993381.371229995 62811221.818998545 4679608.385132491 17232937.726197537 17241335.63429334 24579775.09079704 12478082.789982744 17274361.696838643 12167519.584088117 62765423.092056856 33122282.66020124 34048018.3122242 32710537.750599496 13495859.46354538 13487182.931111295 34532447.59367653 596487.7091186752 27140279.751846544 9117518.482340414 9105545.88532715 20900076.56937436 30674537.847032037 28891757.257938392 30305131.187021594 31006145.799754974 28990713.33630044 32703342.417799417 39912393.19497913 23599184.835710857 31431977.69154254 16118924.344633099 16109779.284916328 71330729.5633487 20550092.392540004 3765381.3102253433 3762237.806036282 56777559.73468316 30385727.674292784 3181547.578499534 3178383.4444981935 64879503.06657584 47046470.12117898 34282178.72804814 39782030.247365214 33367956.874041166 26917565.823539592 38757946.64078547 15734433.194013156 23046512.641832348 23035032.32642997 31335873.475218214 75830509.0639814 23073147.648265578 13632819.719562715 14607633.094732847 14107640.931234673 65863926.4518039 34587556.12180389 24518171.647300217 10221224.499233669 10213889.521355197 75815788.76842949 16180240.474678183 7995031.762516244 32561750.09854765 21743616.434231553 181748.50309035197 32105010.00750235 21387301.684540123 12129816.32927017 14904470.217209876 14895563.563396119 31243776.851793017 31814470.044795595 30233947.913228083 24615623.733209692 30391339.21879444 33463701.95032171 5179630.7503077965 179940.409658847 30088699.856260236 2023106.2602681366 36371533.93659253 30396469.53849668 11007243.772247551 20076370.209922303 27052446.331800446 27040826.136847448 39610995.3446288 30961172.16554003 13077542.870248185 13246887.067655645 24508947.046027757 30919783.34875858 20336906.144019254 3563303.55174279 10764245.456726493 32958571.885983795 31791586.055254463 31764918.10958518 34035893.13248339 48822939.23453204 20509859.14374288 31426106.051073324 36156198.284301214 34698203.18455565 31283136.874943696 21444982.70735809 27389788.821702074 3311122.1641730345 31789446.746141285 43075349.32886274 5970382.072351794 35527107.86409292 28882515.14915051 7011878.028029477 15045651.443046626 20789406.43686241 36219835.28126759 41048564.18425476 4072794.8813142395 4068213.987740605 9918396.570816126 36255103.14938264 24475220.399764463 32705302.752445962 29925374.26541364 12705845.274006503 32393075.444500886 35455109.384311445 8862424.216231119 26495664.273163486 14464551.401438152 39292956.01042461 31209085.915159028 1792022.2731950476 33433812.775042694 31904756.464687053 7843521.047402302 7849266.272851259 3639394.6967694373 3638340.2979663163 36851523.85002436 57125514.90670286 7094086.720177203 7087192.006750941 30009315.881279293 27917478.831547886 52830312.44153064 37282960.65414697 36414097.11805187 9982350.265712148 29385280.606379896 24762895.59649211 13671057.709528117 91200678.58904019 60628325.9104537 34763252.666343234 35673465.25044767 24363646.646794338 9572475.573330466 14159107.970525578 21027795.965814482 20842010.809371643 26614785.302246977 32247531.5785577 32445768.917377107 24776529.950579427 36419985.03177336 20858196.83989331 35667683.35729491 30925572.52685313 7444102.012849291 16057273.462663116 35888308.903139114 1013779.1904552813 29741191.58797208 40498900.820774324 34416148.14611863 29879022.99115041 17143244.798665028 43349467.30634406 4524876.152759509 36027423.2714279 36814873.10620446 60036508.72283258 40600315.42396428 43363367.25779134 79291055.12404312 28020626.05702104 13590940.740634646 22759549.882595163 25445588.98204923 27960307.999672417 11849757.285742158 17818507.609734476 30609025.291996643 31701357.092905205 34168225.24911094 20569904.52855268 29048456.672218844 21878306.383189656 6925711.529857195 10359304.891445631 32157254.26376068 21880573.527398217 6892903.213533203 33089428.401869103 53351387.38493178 57737162.810936 47319724.535950124 29707905.633254614 20491584.76563534 30094434.215530876 23768002.16937534 6939214.353601598 14840789.381990256 29139907.54713612 26787069.658410214 27718498.903959963 20925023.32569556 33618416.20772885 27705405.873192973 31734175.467137337 2125678.9802540354 18468081.557876438 18462760.12717136 10041798.88313227 20571008.287232023 6882939.045323471 32009348.121022865 7064407.139224925 100005621.96539436 46446445.82433898 9627608.910200948 20423367.21676915 48124138.591570295 30579369.097036682 40712771.152804054 11558887.53121454 19066237.428757302 19056722.72779399 12260485.221957 30042074.6815886 40772946.17283052 72411117.49473037 34309150.262071684 9593722.546112781 52040147.63337428 52025611.7481972 32394715.37578403 6254530.278869812 12285228.132931182 39837517.35590915 6252015.82814738 23085507.58655931 35491296.37197865 29210871.16216417 23461922.400051955 656799.8486425396 20421807.330230866 33644972.457125574 2079093.5672493887 32654107.790801045 27267644.66699122 7697007.893102539 32745934.303832687 31432367.764482506 40269707.44753997 6575372.621686604 24179912.247481726 32271787.180801366 32597515.94464732 15405233.290281115 30939075.80321914 18934744.93722178 32709135.507014707 28254641.91577543 47162390.3297538 7523406.195259486 19729551.49836571 33316937.417429235 21358682.084933944 21982779.02221113 51576685.50752546 24306922.746117875 12471734.13153532 28033192.35468666 39432779.13650717 16523344.780597711 36155906.065844536 28038369.448122308 19619670.953246456 32166959.674461816 28072819.99367921 16683682.101653798 61433373.25059609 28108846.678088013 1828321.0122308019 1829406.5131948343 32389410.028049212 27976496.67801263 25872187.70031002 38358205.05854456 45134021.74216768 25865586.53128234 11200589.253458727 8166719.45709207 32112586.79513242 88278882.28683385 38468414.192183554 32595519.638852306 10178445.74118158 33614771.52082791 5883456.299897608 30482815.36017155 32043211.92055639 30690433.857605632 33893344.75471557 40517650.3049534 26501871.062937614 26696892.20869196 26074082.647739552 7286044.599136899 3550171.530500766 13327460.639609743 21595932.662326988 15233395.56239751 31989785.35602007 15224576.26546006 33614954.71396398 27077791.512061816 93098527.07054338 32131403.348920383 29437231.80381649 36761165.94500335 32553386.590210494 43175725.49209692 18876618.760179743 3548836.456604402 36476176.08791201 33619876.13603262 8329213.640124981 31844217.11015797 4208490.7588536665 9919657.45618823 31760080.38280415 19337994.637082044 29207550.247596942 12594270.474877954 2956920.5984367146 2954064.3831069916 20886601.851201665 27855814.236923166 31844623.523934923 41444530.35388359 54738747.79503296 29967009.296153784 31804608.219206627 1841050.740261044 27466396.27102172 36375735.34883574 23067120.700727347 28973690.59582999 1094265.3899020164 9052473.349792669 9059024.515952805 22417578.164465994 20481727.32097678 18577515.374132365 22786137.188685652 29140855.536252763 33643919.83552128 30087511.45364906 18573072.31724896 35768563.792549275 8138521.680604471 8130845.641225658 32174885.83321281 32783763.136183016 35351403.42980776 11347239.778492747 68620639.96490243 11327639.402000595 36205019.28072585 33636892.56193202 1929905.8677806787 7725196.942045884 34420194.41017433 30680953.2327764 13606341.546156952 5326668.065901609 32141942.711636335 19600912.36013196 42614937.913010634 18036894.410493553 42702719.9902108 30069727.790877298 31754402.098015424 27698294.43396405 28830605.012125492 29793140.144965284 24838813.561227538 13623236.109572345 25128749.561955217 23315275.42973631 23309005.10625226 32532101.88859733 52157939.90717345 5850877.888466069 31783299.48378859 32139100.5591281 21291788.97568107 35815154.34172383 18115730.735718437 8631308.631633151 25717777.10839318 21941308.744575027 23755051.469078563 7598677.915766474 37290170.369900666 36435206.92501897 34481112.57744789 37909390.886344455 7853054.2678662725 18789866.423992958 18176846.087059457 38144493.24197398 38546358.256579734 30887807.41508213 38539980.7118053 18166240.524084907 25535667.249260426 14329363.080225376 16871821.8308893 27219230.046624247 31937642.9444199 25352291.471719377 31609176.9375628 38240440.89279588 32110044.783326574 32157948.94938064 43827283.20864715 19292354.116662122 26652178.47018676 14838478.546169613 33543039.021818917 28679125.00948323 30431792.103281755 21280072.72240712 11317308.682099834 48375076.671330675 48366234.16000699 28795352.663153186 31814147.773995604 18949673.816033226 9272515.320409143 9263385.92308091 31841133.66517961 21306871.561816912 17083344.987617195 8657753.01171232 30501433.470479023 31649830.444520965 26533729.392